
     Program PWSCF v.6.8 starts on 27Mar2024 at  0:37:52 

     This program is part of the open-source Quantum ESPRESSO suite
     for quantum simulation of materials; please cite
         "P. Giannozzi et al., J. Phys.:Condens. Matter 21 395502 (2009);
         "P. Giannozzi et al., J. Phys.:Condens. Matter 29 465901 (2017);
         "P. Giannozzi et al., J. Chem. Phys. 152 154105 (2020);
          URL http://www.quantum-espresso.org", 
     in publications or presentations arising from this work. More details at
     http://www.quantum-espresso.org/quote

     Parallel version (MPI & OpenMP), running on      40 processor cores
     Number of MPI processes:                40
     Threads/MPI process:                     1

     MPI processes distributed on     1 nodes
     R & G space division:  proc/nbgrp/npool/nimage =      40
     180393 MiB available memory on the printing compute node when the environment starts
 
     Waiting for input...
     Reading input from standard input

     Current dimensions of program PWSCF are:
     Max number of different atomic species (ntypx) = 10
     Max number of k-points (npk) =  40000
     Max angular momentum in pseudopotentials (lmaxx) =  4
     Found symmetry operation: I + (  0.0000  0.0000  0.5000)
     This is a supercell, fractional translations are disabled
     Message from routine setup:
     using ibrav=0 with symmetry is DISCOURAGED, use correct ibrav instead

     Subspace diagonalization in iterative solution of the eigenvalue problem:
     one sub-group per band group will be used
     scalapack distributed-memory algorithm (size of sub-group:  6*  6 procs)

 
     Parallelization info
     --------------------
     sticks:   dense  smooth     PW     G-vecs:    dense   smooth      PW
     Min         488     234     62                51284    17064    2334
     Max         489     235     66                51288    17067    2336
     Sum       19525    9377   2493              2051425   682629   93381
 
     Using Slab Decomposition
 


     bravais-lattice index     =            0
     lattice parameter (alat)  =      15.6609  a.u.
     unit-cell volume          =    3841.0637 (a.u.)^3
     number of atoms/cell      =           16
     number of atomic types    =            2
     number of electrons       =       128.00
     number of Kohn-Sham states=           77
     kinetic-energy cutoff     =     120.0000  Ry
     charge density cutoff     =    1000.0000  Ry
     scf convergence threshold =      9.6E-09
     mixing beta               =       0.4000
     number of iterations used =            8  plain     mixing
     energy convergence thresh.=      4.8E-06
     force convergence thresh. =      1.0E-05
     press convergence thresh. =      2.0E-01
     Exchange-correlation= PBE
                           (   1   4   3   4   0   0   0)
     nstep                     =          200


     celldm(1)=  15.660916  celldm(2)=   0.000000  celldm(3)=   0.000000
     celldm(4)=   0.000000  celldm(5)=   0.000000  celldm(6)=   0.000000

     crystal axes: (cart. coord. in units of alat)
               a(1) = (   1.000000   0.000000   0.000000 )  
               a(2) = (   0.000000   1.000000   0.000000 )  
               a(3) = (   0.000000   0.000000   1.000000 )  

     reciprocal axes: (cart. coord. in units 2 pi/alat)
               b(1) = (  1.000000  0.000000  0.000000 )  
               b(2) = (  0.000000  1.000000  0.000000 )  
               b(3) = (  0.000000  0.000000  1.000000 )  


     PseudoPot. # 1 for Cs read from file:
     ./Cs.upf
     MD5 check sum: d01c53d012be9123745781bcb8b00a26
     Pseudo is Norm-conserving + core correction, Zval =  9.0
     Generated using ONCVPSP code by D. R. Hamann
     Using radial grid of 2414 points,  8 beta functions with: 
                l(1) =   0
                l(2) =   0
                l(3) =   1
                l(4) =   1
                l(5) =   2
                l(6) =   2
                l(7) =   3
                l(8) =   3

     PseudoPot. # 2 for Cl read from file:
     ./Cl.upf
     MD5 check sum: 3907b9d6e2fcd34dd737a713d16902d8
     Pseudo is Norm-conserving + core correction, Zval =  7.0
     Generated using ONCVPSP code by D. R. Hamann
     Using radial grid of 1028 points,  6 beta functions with: 
                l(1) =   0
                l(2) =   0
                l(3) =   1
                l(4) =   1
                l(5) =   2
                l(6) =   2

     atomic species   valence    mass     pseudopotential
        Cs             9.00   132.90545     Cs( 1.00)
        Cl             7.00    35.45270     Cl( 1.00)

     48 Sym. Ops., with inversion, found


                                    s                        frac. trans.

      isym =  1     identity                                     

 cryst.   s( 1) = (     1          0          0      )
                  (     0          1          0      )
                  (     0          0          1      )

 cart.    s( 1) = (  1.0000000  0.0000000  0.0000000 )
                  (  0.0000000  1.0000000  0.0000000 )
                  (  0.0000000  0.0000000  1.0000000 )


      isym =  2     180 deg rotation - cart. axis [0,0,1]        

 cryst.   s( 2) = (    -1          0          0      )
                  (     0         -1          0      )
                  (     0          0          1      )

 cart.    s( 2) = ( -1.0000000  0.0000000  0.0000000 )
                  (  0.0000000 -1.0000000  0.0000000 )
                  (  0.0000000  0.0000000  1.0000000 )


      isym =  3     180 deg rotation - cart. axis [0,1,0]        

 cryst.   s( 3) = (    -1          0          0      )
                  (     0          1          0      )
                  (     0          0         -1      )

 cart.    s( 3) = ( -1.0000000  0.0000000  0.0000000 )
                  (  0.0000000  1.0000000  0.0000000 )
                  (  0.0000000  0.0000000 -1.0000000 )


      isym =  4     180 deg rotation - cart. axis [1,0,0]        

 cryst.   s( 4) = (     1          0          0      )
                  (     0         -1          0      )
                  (     0          0         -1      )

 cart.    s( 4) = (  1.0000000  0.0000000  0.0000000 )
                  (  0.0000000 -1.0000000  0.0000000 )
                  (  0.0000000  0.0000000 -1.0000000 )


      isym =  5     180 deg rotation - cart. axis [1,1,0]        

 cryst.   s( 5) = (     0          1          0      )
                  (     1          0          0      )
                  (     0          0         -1      )

 cart.    s( 5) = (  0.0000000  1.0000000  0.0000000 )
                  (  1.0000000  0.0000000  0.0000000 )
                  (  0.0000000  0.0000000 -1.0000000 )


      isym =  6     180 deg rotation - cart. axis [1,-1,0]       

 cryst.   s( 6) = (     0         -1          0      )
                  (    -1          0          0      )
                  (     0          0         -1      )

 cart.    s( 6) = (  0.0000000 -1.0000000  0.0000000 )
                  ( -1.0000000  0.0000000  0.0000000 )
                  (  0.0000000  0.0000000 -1.0000000 )


      isym =  7      90 deg rotation - cart. axis [0,0,-1]       

 cryst.   s( 7) = (     0         -1          0      )
                  (     1          0          0      )
                  (     0          0          1      )

 cart.    s( 7) = (  0.0000000  1.0000000  0.0000000 )
                  ( -1.0000000  0.0000000  0.0000000 )
                  (  0.0000000  0.0000000  1.0000000 )


      isym =  8      90 deg rotation - cart. axis [0,0,1]        

 cryst.   s( 8) = (     0          1          0      )
                  (    -1          0          0      )
                  (     0          0          1      )

 cart.    s( 8) = (  0.0000000 -1.0000000  0.0000000 )
                  (  1.0000000  0.0000000  0.0000000 )
                  (  0.0000000  0.0000000  1.0000000 )


      isym =  9     180 deg rotation - cart. axis [1,0,1]        

 cryst.   s( 9) = (     0          0          1      )
                  (     0         -1          0      )
                  (     1          0          0      )

 cart.    s( 9) = (  0.0000000  0.0000000  1.0000000 )
                  (  0.0000000 -1.0000000  0.0000000 )
                  (  1.0000000  0.0000000  0.0000000 )


      isym = 10     180 deg rotation - cart. axis [-1,0,1]       

 cryst.   s(10) = (     0          0         -1      )
                  (     0         -1          0      )
                  (    -1          0          0      )

 cart.    s(10) = (  0.0000000  0.0000000 -1.0000000 )
                  (  0.0000000 -1.0000000  0.0000000 )
                  ( -1.0000000  0.0000000  0.0000000 )


      isym = 11      90 deg rotation - cart. axis [0,1,0]        

 cryst.   s(11) = (     0          0         -1      )
                  (     0          1          0      )
                  (     1          0          0      )

 cart.    s(11) = (  0.0000000  0.0000000  1.0000000 )
                  (  0.0000000  1.0000000  0.0000000 )
                  ( -1.0000000  0.0000000  0.0000000 )


      isym = 12      90 deg rotation - cart. axis [0,-1,0]       

 cryst.   s(12) = (     0          0          1      )
                  (     0          1          0      )
                  (    -1          0          0      )

 cart.    s(12) = (  0.0000000  0.0000000 -1.0000000 )
                  (  0.0000000  1.0000000  0.0000000 )
                  (  1.0000000  0.0000000  0.0000000 )


      isym = 13     180 deg rotation - cart. axis [0,1,1]        

 cryst.   s(13) = (    -1          0          0      )
                  (     0          0          1      )
                  (     0          1          0      )

 cart.    s(13) = ( -1.0000000  0.0000000  0.0000000 )
                  (  0.0000000  0.0000000  1.0000000 )
                  (  0.0000000  1.0000000  0.0000000 )


      isym = 14     180 deg rotation - cart. axis [0,1,-1]       

 cryst.   s(14) = (    -1          0          0      )
                  (     0          0         -1      )
                  (     0         -1          0      )

 cart.    s(14) = ( -1.0000000  0.0000000  0.0000000 )
                  (  0.0000000  0.0000000 -1.0000000 )
                  (  0.0000000 -1.0000000  0.0000000 )


      isym = 15      90 deg rotation - cart. axis [-1,0,0]       

 cryst.   s(15) = (     1          0          0      )
                  (     0          0         -1      )
                  (     0          1          0      )

 cart.    s(15) = (  1.0000000  0.0000000  0.0000000 )
                  (  0.0000000  0.0000000  1.0000000 )
                  (  0.0000000 -1.0000000  0.0000000 )


      isym = 16      90 deg rotation - cart. axis [1,0,0]        

 cryst.   s(16) = (     1          0          0      )
                  (     0          0          1      )
                  (     0         -1          0      )

 cart.    s(16) = (  1.0000000  0.0000000  0.0000000 )
                  (  0.0000000  0.0000000 -1.0000000 )
                  (  0.0000000  1.0000000  0.0000000 )


      isym = 17     120 deg rotation - cart. axis [-1,-1,-1]     

 cryst.   s(17) = (     0          0          1      )
                  (     1          0          0      )
                  (     0          1          0      )

 cart.    s(17) = (  0.0000000  1.0000000  0.0000000 )
                  (  0.0000000  0.0000000  1.0000000 )
                  (  1.0000000  0.0000000  0.0000000 )


      isym = 18     120 deg rotation - cart. axis [-1,1,1]       

 cryst.   s(18) = (     0          0         -1      )
                  (    -1          0          0      )
                  (     0          1          0      )

 cart.    s(18) = (  0.0000000 -1.0000000  0.0000000 )
                  (  0.0000000  0.0000000  1.0000000 )
                  ( -1.0000000  0.0000000  0.0000000 )


      isym = 19     120 deg rotation - cart. axis [1,1,-1]       

 cryst.   s(19) = (     0          0         -1      )
                  (     1          0          0      )
                  (     0         -1          0      )

 cart.    s(19) = (  0.0000000  1.0000000  0.0000000 )
                  (  0.0000000  0.0000000 -1.0000000 )
                  ( -1.0000000  0.0000000  0.0000000 )


      isym = 20     120 deg rotation - cart. axis [1,-1,1]       

 cryst.   s(20) = (     0          0          1      )
                  (    -1          0          0      )
                  (     0         -1          0      )

 cart.    s(20) = (  0.0000000 -1.0000000  0.0000000 )
                  (  0.0000000  0.0000000 -1.0000000 )
                  (  1.0000000  0.0000000  0.0000000 )


      isym = 21     120 deg rotation - cart. axis [1,1,1]        

 cryst.   s(21) = (     0          1          0      )
                  (     0          0          1      )
                  (     1          0          0      )

 cart.    s(21) = (  0.0000000  0.0000000  1.0000000 )
                  (  1.0000000  0.0000000  0.0000000 )
                  (  0.0000000  1.0000000  0.0000000 )


      isym = 22     120 deg rotation - cart. axis [-1,1,-1]      

 cryst.   s(22) = (     0         -1          0      )
                  (     0          0         -1      )
                  (     1          0          0      )

 cart.    s(22) = (  0.0000000  0.0000000  1.0000000 )
                  ( -1.0000000  0.0000000  0.0000000 )
                  (  0.0000000 -1.0000000  0.0000000 )


      isym = 23     120 deg rotation - cart. axis [1,-1,-1]      

 cryst.   s(23) = (     0         -1          0      )
                  (     0          0          1      )
                  (    -1          0          0      )

 cart.    s(23) = (  0.0000000  0.0000000 -1.0000000 )
                  ( -1.0000000  0.0000000  0.0000000 )
                  (  0.0000000  1.0000000  0.0000000 )


      isym = 24     120 deg rotation - cart. axis [-1,-1,1]      

 cryst.   s(24) = (     0          1          0      )
                  (     0          0         -1      )
                  (    -1          0          0      )

 cart.    s(24) = (  0.0000000  0.0000000 -1.0000000 )
                  (  1.0000000  0.0000000  0.0000000 )
                  (  0.0000000 -1.0000000  0.0000000 )


      isym = 25     inversion                                    

 cryst.   s(25) = (    -1          0          0      )
                  (     0         -1          0      )
                  (     0          0         -1      )

 cart.    s(25) = ( -1.0000000  0.0000000  0.0000000 )
                  (  0.0000000 -1.0000000  0.0000000 )
                  (  0.0000000  0.0000000 -1.0000000 )


      isym = 26     inv. 180 deg rotation - cart. axis [0,0,1]   

 cryst.   s(26) = (     1          0          0      )
                  (     0          1          0      )
                  (     0          0         -1      )

 cart.    s(26) = (  1.0000000  0.0000000  0.0000000 )
                  (  0.0000000  1.0000000  0.0000000 )
                  (  0.0000000  0.0000000 -1.0000000 )


      isym = 27     inv. 180 deg rotation - cart. axis [0,1,0]   

 cryst.   s(27) = (     1          0          0      )
                  (     0         -1          0      )
                  (     0          0          1      )

 cart.    s(27) = (  1.0000000  0.0000000  0.0000000 )
                  (  0.0000000 -1.0000000  0.0000000 )
                  (  0.0000000  0.0000000  1.0000000 )


      isym = 28     inv. 180 deg rotation - cart. axis [1,0,0]   

 cryst.   s(28) = (    -1          0          0      )
                  (     0          1          0      )
                  (     0          0          1      )

 cart.    s(28) = ( -1.0000000  0.0000000  0.0000000 )
                  (  0.0000000  1.0000000  0.0000000 )
                  (  0.0000000  0.0000000  1.0000000 )


      isym = 29     inv. 180 deg rotation - cart. axis [1,1,0]   

 cryst.   s(29) = (     0         -1          0      )
                  (    -1          0          0      )
                  (     0          0          1      )

 cart.    s(29) = (  0.0000000 -1.0000000  0.0000000 )
                  ( -1.0000000  0.0000000  0.0000000 )
                  (  0.0000000  0.0000000  1.0000000 )


      isym = 30     inv. 180 deg rotation - cart. axis [1,-1,0]  

 cryst.   s(30) = (     0          1          0      )
                  (     1          0          0      )
                  (     0          0          1      )

 cart.    s(30) = (  0.0000000  1.0000000  0.0000000 )
                  (  1.0000000  0.0000000  0.0000000 )
                  (  0.0000000  0.0000000  1.0000000 )


      isym = 31     inv.  90 deg rotation - cart. axis [0,0,-1]  

 cryst.   s(31) = (     0          1          0      )
                  (    -1          0          0      )
                  (     0          0         -1      )

 cart.    s(31) = (  0.0000000 -1.0000000  0.0000000 )
                  (  1.0000000  0.0000000  0.0000000 )
                  (  0.0000000  0.0000000 -1.0000000 )


      isym = 32     inv.  90 deg rotation - cart. axis [0,0,1]   

 cryst.   s(32) = (     0         -1          0      )
                  (     1          0          0      )
                  (     0          0         -1      )

 cart.    s(32) = (  0.0000000  1.0000000  0.0000000 )
                  ( -1.0000000  0.0000000  0.0000000 )
                  (  0.0000000  0.0000000 -1.0000000 )


      isym = 33     inv. 180 deg rotation - cart. axis [1,0,1]   

 cryst.   s(33) = (     0          0         -1      )
                  (     0          1          0      )
                  (    -1          0          0      )

 cart.    s(33) = (  0.0000000  0.0000000 -1.0000000 )
                  (  0.0000000  1.0000000  0.0000000 )
                  ( -1.0000000  0.0000000  0.0000000 )


      isym = 34     inv. 180 deg rotation - cart. axis [-1,0,1]  

 cryst.   s(34) = (     0          0          1      )
                  (     0          1          0      )
                  (     1          0          0      )

 cart.    s(34) = (  0.0000000  0.0000000  1.0000000 )
                  (  0.0000000  1.0000000  0.0000000 )
                  (  1.0000000  0.0000000  0.0000000 )


      isym = 35     inv.  90 deg rotation - cart. axis [0,1,0]   

 cryst.   s(35) = (     0          0          1      )
                  (     0         -1          0      )
                  (    -1          0          0      )

 cart.    s(35) = (  0.0000000  0.0000000 -1.0000000 )
                  (  0.0000000 -1.0000000  0.0000000 )
                  (  1.0000000  0.0000000  0.0000000 )


      isym = 36     inv.  90 deg rotation - cart. axis [0,-1,0]  

 cryst.   s(36) = (     0          0         -1      )
                  (     0         -1          0      )
                  (     1          0          0      )

 cart.    s(36) = (  0.0000000  0.0000000  1.0000000 )
                  (  0.0000000 -1.0000000  0.0000000 )
                  ( -1.0000000  0.0000000  0.0000000 )


      isym = 37     inv. 180 deg rotation - cart. axis [0,1,1]   

 cryst.   s(37) = (     1          0          0      )
                  (     0          0         -1      )
                  (     0         -1          0      )

 cart.    s(37) = (  1.0000000  0.0000000  0.0000000 )
                  (  0.0000000  0.0000000 -1.0000000 )
                  (  0.0000000 -1.0000000  0.0000000 )


      isym = 38     inv. 180 deg rotation - cart. axis [0,1,-1]  

 cryst.   s(38) = (     1          0          0      )
                  (     0          0          1      )
                  (     0          1          0      )

 cart.    s(38) = (  1.0000000  0.0000000  0.0000000 )
                  (  0.0000000  0.0000000  1.0000000 )
                  (  0.0000000  1.0000000  0.0000000 )


      isym = 39     inv.  90 deg rotation - cart. axis [-1,0,0]  

 cryst.   s(39) = (    -1          0          0      )
                  (     0          0          1      )
                  (     0         -1          0      )

 cart.    s(39) = ( -1.0000000  0.0000000  0.0000000 )
                  (  0.0000000  0.0000000 -1.0000000 )
                  (  0.0000000  1.0000000  0.0000000 )


      isym = 40     inv.  90 deg rotation - cart. axis [1,0,0]   

 cryst.   s(40) = (    -1          0          0      )
                  (     0          0         -1      )
                  (     0          1          0      )

 cart.    s(40) = ( -1.0000000  0.0000000  0.0000000 )
                  (  0.0000000  0.0000000  1.0000000 )
                  (  0.0000000 -1.0000000  0.0000000 )


      isym = 41     inv. 120 deg rotation - cart. axis [-1,-1,-1]

 cryst.   s(41) = (     0          0         -1      )
                  (    -1          0          0      )
                  (     0         -1          0      )

 cart.    s(41) = (  0.0000000 -1.0000000  0.0000000 )
                  (  0.0000000  0.0000000 -1.0000000 )
                  ( -1.0000000  0.0000000  0.0000000 )


      isym = 42     inv. 120 deg rotation - cart. axis [-1,1,1]  

 cryst.   s(42) = (     0          0          1      )
                  (     1          0          0      )
                  (     0         -1          0      )

 cart.    s(42) = (  0.0000000  1.0000000  0.0000000 )
                  (  0.0000000  0.0000000 -1.0000000 )
                  (  1.0000000  0.0000000  0.0000000 )


      isym = 43     inv. 120 deg rotation - cart. axis [1,1,-1]  

 cryst.   s(43) = (     0          0          1      )
                  (    -1          0          0      )
                  (     0          1          0      )

 cart.    s(43) = (  0.0000000 -1.0000000  0.0000000 )
                  (  0.0000000  0.0000000  1.0000000 )
                  (  1.0000000  0.0000000  0.0000000 )


      isym = 44     inv. 120 deg rotation - cart. axis [1,-1,1]  

 cryst.   s(44) = (     0          0         -1      )
                  (     1          0          0      )
                  (     0          1          0      )

 cart.    s(44) = (  0.0000000  1.0000000  0.0000000 )
                  (  0.0000000  0.0000000  1.0000000 )
                  ( -1.0000000  0.0000000  0.0000000 )


      isym = 45     inv. 120 deg rotation - cart. axis [1,1,1]   

 cryst.   s(45) = (     0         -1          0      )
                  (     0          0         -1      )
                  (    -1          0          0      )

 cart.    s(45) = (  0.0000000  0.0000000 -1.0000000 )
                  ( -1.0000000  0.0000000  0.0000000 )
                  (  0.0000000 -1.0000000  0.0000000 )


      isym = 46     inv. 120 deg rotation - cart. axis [-1,1,-1] 

 cryst.   s(46) = (     0          1          0      )
                  (     0          0          1      )
                  (    -1          0          0      )

 cart.    s(46) = (  0.0000000  0.0000000 -1.0000000 )
                  (  1.0000000  0.0000000  0.0000000 )
                  (  0.0000000  1.0000000  0.0000000 )


      isym = 47     inv. 120 deg rotation - cart. axis [1,-1,-1] 

 cryst.   s(47) = (     0          1          0      )
                  (     0          0         -1      )
                  (     1          0          0      )

 cart.    s(47) = (  0.0000000  0.0000000  1.0000000 )
                  (  1.0000000  0.0000000  0.0000000 )
                  (  0.0000000 -1.0000000  0.0000000 )


      isym = 48     inv. 120 deg rotation - cart. axis [-1,-1,1] 

 cryst.   s(48) = (     0         -1          0      )
                  (     0          0          1      )
                  (     1          0          0      )

 cart.    s(48) = (  0.0000000  0.0000000  1.0000000 )
                  ( -1.0000000  0.0000000  0.0000000 )
                  (  0.0000000  1.0000000  0.0000000 )


   Cartesian axes

     site n.     atom                  positions (alat units)
         1           Cs  tau(   1) = (   0.0000000   0.0000000   0.0000000  )
         2           Cl  tau(   2) = (   0.2499999   0.2499999   0.2499999  )
         3           Cs  tau(   3) = (   0.0000000   0.0000000   0.4999998  )
         4           Cl  tau(   4) = (   0.2499999   0.2499999   0.7499998  )
         5           Cs  tau(   5) = (   0.0000000   0.4999998   0.0000000  )
         6           Cl  tau(   6) = (   0.2499999   0.7499998   0.2499999  )
         7           Cs  tau(   7) = (   0.0000000   0.4999998   0.4999998  )
         8           Cl  tau(   8) = (   0.2499999   0.7499998   0.7499998  )
         9           Cs  tau(   9) = (   0.4999998   0.0000000   0.0000000  )
        10           Cl  tau(  10) = (   0.7499998   0.2499999   0.2499999  )
        11           Cs  tau(  11) = (   0.4999998   0.0000000   0.4999998  )
        12           Cl  tau(  12) = (   0.7499998   0.2499999   0.7499998  )
        13           Cs  tau(  13) = (   0.4999998   0.4999998   0.0000000  )
        14           Cl  tau(  14) = (   0.7499998   0.7499998   0.2499999  )
        15           Cs  tau(  15) = (   0.4999998   0.4999998   0.4999998  )
        16           Cl  tau(  16) = (   0.7499998   0.7499998   0.7499998  )

   Crystallographic axes

     site n.     atom                  positions (cryst. coord.)
         1           Cs  tau(   1) = (  0.0000000  0.0000000  0.0000000  )
         2           Cl  tau(   2) = (  0.2499999  0.2499999  0.2499999  )
         3           Cs  tau(   3) = (  0.0000000  0.0000000  0.4999998  )
         4           Cl  tau(   4) = (  0.2499999  0.2499999  0.7499998  )
         5           Cs  tau(   5) = (  0.0000000  0.4999998  0.0000000  )
         6           Cl  tau(   6) = (  0.2499999  0.7499998  0.2499999  )
         7           Cs  tau(   7) = (  0.0000000  0.4999998  0.4999998  )
         8           Cl  tau(   8) = (  0.2499999  0.7499998  0.7499998  )
         9           Cs  tau(   9) = (  0.4999998  0.0000000  0.0000000  )
        10           Cl  tau(  10) = (  0.7499998  0.2499999  0.2499999  )
        11           Cs  tau(  11) = (  0.4999998  0.0000000  0.4999998  )
        12           Cl  tau(  12) = (  0.7499998  0.2499999  0.7499998  )
        13           Cs  tau(  13) = (  0.4999998  0.4999998  0.0000000  )
        14           Cl  tau(  14) = (  0.7499998  0.7499998  0.2499999  )
        15           Cs  tau(  15) = (  0.4999998  0.4999998  0.4999998  )
        16           Cl  tau(  16) = (  0.7499998  0.7499998  0.7499998  )

     number of k points=    10  Marzari-Vanderbilt smearing, width (Ry)=  0.0073
                       cart. coord. in units 2pi/alat
        k(    1) = (   0.0000000   0.0000000   0.0000000), wk =   0.0312500
        k(    2) = (   0.0000000   0.0000000   0.2500000), wk =   0.1875000
        k(    3) = (   0.0000000   0.0000000  -0.5000000), wk =   0.0937500
        k(    4) = (   0.0000000   0.2500000   0.2500000), wk =   0.3750000
        k(    5) = (   0.0000000   0.2500000  -0.5000000), wk =   0.3750000
        k(    6) = (   0.0000000  -0.5000000  -0.5000000), wk =   0.0937500
        k(    7) = (   0.2500000   0.2500000   0.2500000), wk =   0.2500000
        k(    8) = (   0.2500000   0.2500000  -0.5000000), wk =   0.3750000
        k(    9) = (   0.2500000  -0.5000000  -0.5000000), wk =   0.1875000
        k(   10) = (  -0.5000000  -0.5000000  -0.5000000), wk =   0.0312500

                       cryst. coord.
        k(    1) = (   0.0000000   0.0000000   0.0000000), wk =   0.0312500
        k(    2) = (   0.0000000   0.0000000   0.2500000), wk =   0.1875000
        k(    3) = (   0.0000000   0.0000000  -0.5000000), wk =   0.0937500
        k(    4) = (   0.0000000   0.2500000   0.2500000), wk =   0.3750000
        k(    5) = (   0.0000000   0.2500000  -0.5000000), wk =   0.3750000
        k(    6) = (   0.0000000  -0.5000000  -0.5000000), wk =   0.0937500
        k(    7) = (   0.2500000   0.2500000   0.2500000), wk =   0.2500000
        k(    8) = (   0.2500000   0.2500000  -0.5000000), wk =   0.3750000
        k(    9) = (   0.2500000  -0.5000000  -0.5000000), wk =   0.1875000
        k(   10) = (  -0.5000000  -0.5000000  -0.5000000), wk =   0.0312500

     Dense  grid:  2051425 G-vectors     FFT dimensions: ( 160, 160, 160)

     Smooth grid:   682629 G-vectors     FFT dimensions: ( 120, 120, 120)

     Dynamical RAM for                 wfc:       2.50 MB

     Dynamical RAM for     wfc (w. buffer):      27.54 MB

     Dynamical RAM for           str. fact:       1.57 MB

     Dynamical RAM for           local pot:       0.00 MB

     Dynamical RAM for          nlocal pot:      13.01 MB

     Dynamical RAM for                qrad:      24.35 MB

     Dynamical RAM for          rho,v,vnew:       4.69 MB

     Dynamical RAM for               rhoin:       1.56 MB

     Dynamical RAM for            rho*nmix:      12.52 MB

     Dynamical RAM for           G-vectors:       3.06 MB

     Dynamical RAM for          h,s,v(r/c):       0.03 MB

     Dynamical RAM for          <psi|beta>:       0.47 MB

     Dynamical RAM for                 psi:       5.01 MB

     Dynamical RAM for                hpsi:       5.01 MB

     Dynamical RAM for      wfcinit/wfcrot:       5.14 MB

     Estimated static dynamical RAM per process >      82.04 MB

     Estimated max dynamical RAM per process >     105.07 MB

     Estimated total dynamical RAM >       4.10 GB

     Initial potential from superposition of free atoms

     starting charge  127.69476, renormalised to  128.00000
     Starting wfcs are   72 randomized atomic wfcs +    5 random wfcs

     total cpu time spent up to now is        5.7 secs

     Self-consistent Calculation

     iteration #  1     ecut=   120.00 Ry     beta= 0.40
     Davidson diagonalization with overlap

---- Real-time Memory Report at c_bands before calling an iterative solver
           278 MiB given to the printing process from OS
             0 MiB allocation reported by mallinfo(arena+hblkhd)
        175802 MiB available memory on the node where the printing process lives
------------------
     ethr =  1.00E-02,  avg # of iterations =  4.8

     Threshold (ethr) on eigenvalues was too large:
     Diagonalizing with lowered threshold

     Davidson diagonalization with overlap

---- Real-time Memory Report at c_bands before calling an iterative solver
           303 MiB given to the printing process from OS
             0 MiB allocation reported by mallinfo(arena+hblkhd)
        175025 MiB available memory on the node where the printing process lives
------------------
     ethr =  5.18E-04,  avg # of iterations =  1.5

     total cpu time spent up to now is       14.2 secs

     total energy              =    -638.56294803 Ry
     estimated scf accuracy    <       0.65990156 Ry

     iteration #  2     ecut=   120.00 Ry     beta= 0.40
     Davidson diagonalization with overlap

---- Real-time Memory Report at c_bands before calling an iterative solver
           308 MiB given to the printing process from OS
             0 MiB allocation reported by mallinfo(arena+hblkhd)
        174906 MiB available memory on the node where the printing process lives
------------------
     ethr =  5.16E-04,  avg # of iterations =  4.0

     total cpu time spent up to now is       18.9 secs

     total energy              =    -638.66920219 Ry
     estimated scf accuracy    <       0.04110269 Ry

     iteration #  3     ecut=   120.00 Ry     beta= 0.40
     Davidson diagonalization with overlap

---- Real-time Memory Report at c_bands before calling an iterative solver
           325 MiB given to the printing process from OS
             0 MiB allocation reported by mallinfo(arena+hblkhd)
        174338 MiB available memory on the node where the printing process lives
------------------
     c_bands:  1 eigenvalues not converged
     c_bands:  1 eigenvalues not converged
     ethr =  3.21E-05,  avg # of iterations = 14.7

     total cpu time spent up to now is       26.7 secs

     total energy              =    -638.67611779 Ry
     estimated scf accuracy    <       0.01059534 Ry

     iteration #  4     ecut=   120.00 Ry     beta= 0.40
     Davidson diagonalization with overlap

---- Real-time Memory Report at c_bands before calling an iterative solver
           335 MiB given to the printing process from OS
             0 MiB allocation reported by mallinfo(arena+hblkhd)
        174141 MiB available memory on the node where the printing process lives
------------------
     ethr =  8.28E-06,  avg # of iterations =  8.6

     total cpu time spent up to now is       32.3 secs

     total energy              =    -638.67747151 Ry
     estimated scf accuracy    <       0.00053436 Ry

     iteration #  5     ecut=   120.00 Ry     beta= 0.40
     Davidson diagonalization with overlap

---- Real-time Memory Report at c_bands before calling an iterative solver
           339 MiB given to the printing process from OS
             0 MiB allocation reported by mallinfo(arena+hblkhd)
        174050 MiB available memory on the node where the printing process lives
------------------
     ethr =  4.17E-07,  avg # of iterations =  7.1

     total cpu time spent up to now is       38.9 secs

     total energy              =    -638.67797558 Ry
     estimated scf accuracy    <       0.00014431 Ry

     iteration #  6     ecut=   120.00 Ry     beta= 0.40
     Davidson diagonalization with overlap

---- Real-time Memory Report at c_bands before calling an iterative solver
           347 MiB given to the printing process from OS
             0 MiB allocation reported by mallinfo(arena+hblkhd)
        173976 MiB available memory on the node where the printing process lives
------------------
     ethr =  1.13E-07,  avg # of iterations =  3.5

     total cpu time spent up to now is       43.8 secs

     total energy              =    -638.67803540 Ry
     estimated scf accuracy    <       0.00001067 Ry

     iteration #  7     ecut=   120.00 Ry     beta= 0.40
     Davidson diagonalization with overlap

---- Real-time Memory Report at c_bands before calling an iterative solver
           350 MiB given to the printing process from OS
             0 MiB allocation reported by mallinfo(arena+hblkhd)
        173931 MiB available memory on the node where the printing process lives
------------------
     ethr =  8.34E-09,  avg # of iterations =  5.4

     total cpu time spent up to now is       49.8 secs

     total energy              =    -638.67803705 Ry
     estimated scf accuracy    <       0.00000591 Ry

     iteration #  8     ecut=   120.00 Ry     beta= 0.40
     Davidson diagonalization with overlap

---- Real-time Memory Report at c_bands before calling an iterative solver
           354 MiB given to the printing process from OS
             0 MiB allocation reported by mallinfo(arena+hblkhd)
        173901 MiB available memory on the node where the printing process lives
------------------
     ethr =  4.62E-09,  avg # of iterations =  2.8

     total cpu time spent up to now is       54.3 secs

     total energy              =    -638.67803881 Ry
     estimated scf accuracy    <       0.00000005 Ry

     iteration #  9     ecut=   120.00 Ry     beta= 0.40
     Davidson diagonalization with overlap

---- Real-time Memory Report at c_bands before calling an iterative solver
           356 MiB given to the printing process from OS
             0 MiB allocation reported by mallinfo(arena+hblkhd)
        173885 MiB available memory on the node where the printing process lives
------------------
     ethr =  3.52E-11,  avg # of iterations =  7.3

     total cpu time spent up to now is       62.7 secs

     total energy              =    -638.67803902 Ry
     estimated scf accuracy    <       0.00000001 Ry

     iteration # 10     ecut=   120.00 Ry     beta= 0.40
     Davidson diagonalization with overlap

---- Real-time Memory Report at c_bands before calling an iterative solver
           369 MiB given to the printing process from OS
             0 MiB allocation reported by mallinfo(arena+hblkhd)
        173786 MiB available memory on the node where the printing process lives
------------------
     ethr =  1.09E-11,  avg # of iterations =  4.7

     total cpu time spent up to now is       68.1 secs

     End of self-consistent calculation

          k = 0.0000 0.0000 0.0000 ( 85159 PWs)   bands (ev):

   -16.4732 -16.3963 -16.3963 -16.3963 -16.3305 -16.3305 -16.3305 -16.2685
    -9.2782  -9.2782  -9.2782  -9.2384  -9.1535  -9.1535  -9.1535  -9.0776
    -3.7072  -3.7072  -3.7072  -3.7072  -3.7072  -3.7072  -3.4833  -3.4833
    -3.4833  -3.4815  -3.4815  -3.4815  -2.9682  -2.9682  -2.9682  -2.8341
    -2.8341  -2.8341  -2.8341  -2.8341  -2.8341  -2.7505  -2.7505  -2.7505
     1.7869   1.7869   1.7869   1.8663   1.8663   1.8663   2.4957   2.4957
     2.4957   2.4957   2.4957   2.4957   2.6992   2.6992   2.6992   2.6992
     2.6992   2.6992   2.8661   2.8661   2.8661   2.9177   2.9177   2.9177
     8.1201   8.3383   8.3383   8.8631   8.8631   8.8631   8.9404   8.9404
     8.9404   9.3405   9.3405  10.4642  10.4642

     occupation numbers 
     1.0000   1.0000   1.0000   1.0000   1.0000   1.0000   1.0000   1.0000
     1.0000   1.0000   1.0000   1.0000   1.0000   1.0000   1.0000   1.0000
     1.0000   1.0000   1.0000   1.0000   1.0000   1.0000   1.0000   1.0000
     1.0000   1.0000   1.0000   1.0000   1.0000   1.0000   1.0000   1.0000
     1.0000   1.0000   1.0000   1.0000   1.0000   1.0000   1.0000   1.0000
     1.0000   1.0000   1.0000   1.0000   1.0000   1.0000   1.0000   1.0000
     1.0000   1.0000   1.0000   1.0000   1.0000   1.0000   1.0000   1.0000
     1.0000   1.0000   1.0000   1.0000   1.0000   1.0000   1.0000   1.0000
     0.0000   0.0000   0.0000   0.0000   0.0000   0.0000   0.0000   0.0000
     0.0000   0.0000   0.0000   0.0000   0.0000

          k = 0.0000 0.0000 0.2500 ( 85323 PWs)   bands (ev):

   -16.4621 -16.4077 -16.3868 -16.3868 -16.3403 -16.3403 -16.3215 -16.2777
    -9.2715  -9.2606  -9.2606  -9.2433  -9.1724  -9.1724  -9.1426  -9.0889
    -3.6762  -3.6762  -3.6728  -3.6728  -3.5950  -3.5950  -3.5168  -3.5168
    -3.5145  -3.5145  -3.4165  -3.3834  -3.0532  -2.9814  -2.9814  -2.9493
    -2.9493  -2.8679  -2.8545  -2.8545  -2.8221  -2.8221  -2.7630  -2.7630
     1.9060   1.9060   1.9252   1.9581   1.9581   1.9904   2.4027   2.4027
     2.4028   2.4028   2.5163   2.5163   2.6595   2.6595   2.6905   2.7148
     2.7226   2.7226   2.7327   2.7327   2.8405   2.8405   2.8871   2.8871
     8.4402   8.4789   8.7021   9.0071   9.0071   9.1176   9.1723   9.1723
     9.2825   9.2974   9.4663   9.4663  10.0841

     occupation numbers 
     1.0000   1.0000   1.0000   1.0000   1.0000   1.0000   1.0000   1.0000
     1.0000   1.0000   1.0000   1.0000   1.0000   1.0000   1.0000   1.0000
     1.0000   1.0000   1.0000   1.0000   1.0000   1.0000   1.0000   1.0000
     1.0000   1.0000   1.0000   1.0000   1.0000   1.0000   1.0000   1.0000
     1.0000   1.0000   1.0000   1.0000   1.0000   1.0000   1.0000   1.0000
     1.0000   1.0000   1.0000   1.0000   1.0000   1.0000   1.0000   1.0000
     1.0000   1.0000   1.0000   1.0000   1.0000   1.0000   1.0000   1.0000
     1.0000   1.0000   1.0000   1.0000   1.0000   1.0000   1.0000   1.0000
     0.0000   0.0000   0.0000   0.0000   0.0000   0.0000   0.0000   0.0000
     0.0000   0.0000   0.0000   0.0000   0.0000

          k = 0.0000 0.0000-0.5000 ( 85342 PWs)   bands (ev):

   -16.4351 -16.4351 -16.3636 -16.3636 -16.3636 -16.3636 -16.2997 -16.2997
    -9.2565  -9.2565  -9.2172  -9.2172  -9.2171  -9.2171  -9.1160  -9.1159
    -3.5987  -3.5987  -3.5987  -3.5987  -3.5921  -3.5921  -3.5921  -3.5921
    -3.3052  -3.3052  -3.3051  -3.3051  -3.2439  -3.2439  -3.1353  -3.1353
    -2.9025  -2.9025  -2.9025  -2.9025  -2.7927  -2.7927  -2.7927  -2.7927
     2.1669   2.1669   2.1669   2.1669   2.1799   2.1799   2.1799   2.1799
     2.2895   2.2896   2.3157   2.3158   2.5784   2.5784   2.5784   2.5784
     2.7804   2.7804   2.7805   2.7805   2.8113   2.8113   2.8114   2.8114
     8.7280   8.7280   9.2725   9.2725   9.3320   9.3320   9.3320   9.3320
     9.7361   9.7361   9.8316   9.8317   9.8317

     occupation numbers 
     1.0000   1.0000   1.0000   1.0000   1.0000   1.0000   1.0000   1.0000
     1.0000   1.0000   1.0000   1.0000   1.0000   1.0000   1.0000   1.0000
     1.0000   1.0000   1.0000   1.0000   1.0000   1.0000   1.0000   1.0000
     1.0000   1.0000   1.0000   1.0000   1.0000   1.0000   1.0000   1.0000
     1.0000   1.0000   1.0000   1.0000   1.0000   1.0000   1.0000   1.0000
     1.0000   1.0000   1.0000   1.0000   1.0000   1.0000   1.0000   1.0000
     1.0000   1.0000   1.0000   1.0000   1.0000   1.0000   1.0000   1.0000
     1.0000   1.0000   1.0000   1.0000   1.0000   1.0000   1.0000   1.0000
     0.0000   0.0000   0.0000   0.0000   0.0000   0.0000   0.0000   0.0000
     0.0000   0.0000   0.0000   0.0000   0.0000

          k = 0.0000 0.2500 0.2500 ( 85247 PWs)   bands (ev):

   -16.4512 -16.3980 -16.3980 -16.3773 -16.3503 -16.3312 -16.3312 -16.2869
    -9.2572  -9.2572  -9.2451  -9.2438  -9.1872  -9.1604  -9.1604  -9.1014
    -3.6506  -3.6506  -3.6089  -3.5664  -3.5664  -3.5403  -3.5363  -3.5248
    -3.4451  -3.4451  -3.4378  -3.3947  -3.0877  -2.9963  -2.9918  -2.9866
    -2.9866  -2.9380  -2.9312  -2.8839  -2.8839  -2.8413  -2.8413  -2.7766
     1.9749   1.9960   2.0110   2.0110   2.0283   2.1626   2.3415   2.3439
     2.3439   2.4030   2.4030   2.5421   2.5617   2.5962   2.6899   2.6899
     2.7264   2.7264   2.7483   2.7483   2.7708   2.8245   2.8330   2.8646
     8.6386   8.8019   8.9177   9.0672   9.2868   9.2868   9.3948   9.4125
     9.4125   9.4442   9.4442  10.1029  10.1029

     occupation numbers 
     1.0000   1.0000   1.0000   1.0000   1.0000   1.0000   1.0000   1.0000
     1.0000   1.0000   1.0000   1.0000   1.0000   1.0000   1.0000   1.0000
     1.0000   1.0000   1.0000   1.0000   1.0000   1.0000   1.0000   1.0000
     1.0000   1.0000   1.0000   1.0000   1.0000   1.0000   1.0000   1.0000
     1.0000   1.0000   1.0000   1.0000   1.0000   1.0000   1.0000   1.0000
     1.0000   1.0000   1.0000   1.0000   1.0000   1.0000   1.0000   1.0000
     1.0000   1.0000   1.0000   1.0000   1.0000   1.0000   1.0000   1.0000
     1.0000   1.0000   1.0000   1.0000   1.0000   1.0000   1.0000   1.0000
     0.0000   0.0000   0.0000   0.0000   0.0000   0.0000   0.0000   0.0000
     0.0000   0.0000   0.0000   0.0000   0.0000

          k = 0.0000 0.2500-0.5000 ( 85274 PWs)   bands (ev):

   -16.4248 -16.4248 -16.3743 -16.3743 -16.3544 -16.3544 -16.3092 -16.3092
    -9.2503  -9.2503  -9.2225  -9.2224  -9.2027  -9.2026  -9.1312  -9.1311
    -3.5961  -3.5961  -3.5915  -3.5915  -3.5186  -3.5186  -3.4956  -3.4956
    -3.2844  -3.2844  -3.2772  -3.2772  -3.2671  -3.2671  -3.1580  -3.1580
    -2.9994  -2.9994  -2.9216  -2.9216  -2.8869  -2.8869  -2.8092  -2.8092
     2.1594   2.1595   2.1851   2.1851   2.1903   2.1903   2.1915   2.1916
     2.2878   2.2879   2.4500   2.4500   2.4554   2.4555   2.6054   2.6055
     2.7592   2.7593   2.7743   2.7743   2.7862   2.7863   2.8080   2.8081
     8.9458   8.9458   9.2831   9.2831   9.4282   9.4282   9.7061   9.7061
     9.8496   9.8497   9.8596   9.8596   9.9291

     occupation numbers 
     1.0000   1.0000   1.0000   1.0000   1.0000   1.0000   1.0000   1.0000
     1.0000   1.0000   1.0000   1.0000   1.0000   1.0000   1.0000   1.0000
     1.0000   1.0000   1.0000   1.0000   1.0000   1.0000   1.0000   1.0000
     1.0000   1.0000   1.0000   1.0000   1.0000   1.0000   1.0000   1.0000
     1.0000   1.0000   1.0000   1.0000   1.0000   1.0000   1.0000   1.0000
     1.0000   1.0000   1.0000   1.0000   1.0000   1.0000   1.0000   1.0000
     1.0000   1.0000   1.0000   1.0000   1.0000   1.0000   1.0000   1.0000
     1.0000   1.0000   1.0000   1.0000   1.0000   1.0000   1.0000   1.0000
     0.0000   0.0000   0.0000   0.0000   0.0000   0.0000   0.0000   0.0000
     0.0000   0.0000   0.0000   0.0000   0.0000

          k = 0.0000-0.5000-0.5000 ( 85380 PWs)   bands (ev):

   -16.3997 -16.3997 -16.3997 -16.3997 -16.3319 -16.3319 -16.3319 -16.3319
    -9.2360  -9.2359  -9.2359  -9.2359  -9.1674  -9.1673  -9.1673  -9.1672
    -3.5922  -3.5922  -3.5922  -3.5922  -3.3588  -3.3588  -3.3588  -3.3588
    -3.2687  -3.2687  -3.2687  -3.2687  -3.1814  -3.1814  -3.1814  -3.1814
    -3.1748  -3.1748  -3.1748  -3.1748  -2.8485  -2.8485  -2.8485  -2.8485
     2.2029   2.2030   2.2030   2.2030   2.2498   2.2498   2.2498   2.2498
     2.2540   2.2541   2.2541   2.2541   2.6580   2.6580   2.6580   2.6580
     2.6699   2.6699   2.6699   2.6699   2.7983   2.7984   2.7984   2.7985
     9.1809   9.1809   9.1809   9.1809   9.7735   9.7735   9.7735   9.7736
    10.0186  10.0187  10.0189  10.5303  10.5307

     occupation numbers 
     1.0000   1.0000   1.0000   1.0000   1.0000   1.0000   1.0000   1.0000
     1.0000   1.0000   1.0000   1.0000   1.0000   1.0000   1.0000   1.0000
     1.0000   1.0000   1.0000   1.0000   1.0000   1.0000   1.0000   1.0000
     1.0000   1.0000   1.0000   1.0000   1.0000   1.0000   1.0000   1.0000
     1.0000   1.0000   1.0000   1.0000   1.0000   1.0000   1.0000   1.0000
     1.0000   1.0000   1.0000   1.0000   1.0000   1.0000   1.0000   1.0000
     1.0000   1.0000   1.0000   1.0000   1.0000   1.0000   1.0000   1.0000
     1.0000   1.0000   1.0000   1.0000   1.0000   1.0000   1.0000   1.0000
     0.0000   0.0000   0.0000   0.0000   0.0000   0.0000   0.0000   0.0000
     0.0000   0.0000   0.0000   0.0000   0.0000

          k = 0.2500 0.2500 0.2500 ( 85241 PWs)   bands (ev):

   -16.4406 -16.3883 -16.3883 -16.3883 -16.3411 -16.3411 -16.3411 -16.2963
    -9.2442  -9.2433  -9.2433  -9.2433  -9.1748  -9.1748  -9.1748  -9.1142
    -3.5794  -3.5794  -3.5794  -3.5121  -3.5121  -3.5121  -3.4624  -3.4624
    -3.4624  -3.4608  -3.4281  -3.4281  -3.0666  -3.0666  -2.9857  -2.9857
    -2.9857  -2.9608  -2.9608  -2.9608  -2.9581  -2.9002  -2.9002  -2.9002
     2.0584   2.0584   2.0873   2.0873   2.0873   2.2681   2.2991   2.2991
     2.2991   2.4592   2.4592   2.4592   2.5481   2.6031   2.6031   2.6031
     2.7153   2.7153   2.7153   2.7682   2.7682   2.7682   2.7949   2.7949
     9.0046   9.0048   9.0495   9.4758   9.4758   9.4758   9.5583   9.6310
     9.6310   9.6310  10.0977  10.0978  10.0978

     occupation numbers 
     1.0000   1.0000   1.0000   1.0000   1.0000   1.0000   1.0000   1.0000
     1.0000   1.0000   1.0000   1.0000   1.0000   1.0000   1.0000   1.0000
     1.0000   1.0000   1.0000   1.0000   1.0000   1.0000   1.0000   1.0000
     1.0000   1.0000   1.0000   1.0000   1.0000   1.0000   1.0000   1.0000
     1.0000   1.0000   1.0000   1.0000   1.0000   1.0000   1.0000   1.0000
     1.0000   1.0000   1.0000   1.0000   1.0000   1.0000   1.0000   1.0000
     1.0000   1.0000   1.0000   1.0000   1.0000   1.0000   1.0000   1.0000
     1.0000   1.0000   1.0000   1.0000   1.0000   1.0000   1.0000   1.0000
     0.0000   0.0000   0.0000   0.0000   0.0000   0.0000   0.0000   0.0000
     0.0000   0.0000   0.0000   0.0000   0.0000

          k = 0.2500 0.2500-0.5000 ( 85240 PWs)   bands (ev):

   -16.4146 -16.4146 -16.3649 -16.3649 -16.3649 -16.3649 -16.3189 -16.3189
    -9.2431  -9.2430  -9.2093  -9.2093  -9.2093  -9.2093  -9.1448  -9.1447
    -3.5100  -3.5100  -3.5100  -3.5100  -3.5057  -3.5057  -3.4820  -3.4820
    -3.2719  -3.2719  -3.2657  -3.2657  -3.2657  -3.2657  -3.1792  -3.1792
    -3.0146  -3.0146  -2.9730  -2.9730  -2.9375  -2.9375  -2.9375  -2.9375
     2.1769   2.1769   2.2268   2.2268   2.2269   2.2269   2.2590   2.2591
     2.3233   2.3233   2.4858   2.4858   2.5038   2.5038   2.5038   2.5038
     2.7006   2.7007   2.7401   2.7401   2.7401   2.7401   2.7619   2.7619
     9.2457   9.2457   9.5785   9.5786   9.6673   9.6673   9.6673   9.6676
     9.9828   9.9830  10.0250  10.0251  10.0892

     occupation numbers 
     1.0000   1.0000   1.0000   1.0000   1.0000   1.0000   1.0000   1.0000
     1.0000   1.0000   1.0000   1.0000   1.0000   1.0000   1.0000   1.0000
     1.0000   1.0000   1.0000   1.0000   1.0000   1.0000   1.0000   1.0000
     1.0000   1.0000   1.0000   1.0000   1.0000   1.0000   1.0000   1.0000
     1.0000   1.0000   1.0000   1.0000   1.0000   1.0000   1.0000   1.0000
     1.0000   1.0000   1.0000   1.0000   1.0000   1.0000   1.0000   1.0000
     1.0000   1.0000   1.0000   1.0000   1.0000   1.0000   1.0000   1.0000
     1.0000   1.0000   1.0000   1.0000   1.0000   1.0000   1.0000   1.0000
     0.0000   0.0000   0.0000   0.0000   0.0000   0.0000   0.0000   0.0000
     0.0000   0.0000   0.0000   0.0000   0.0000

          k = 0.2500-0.5000-0.5000 ( 85268 PWs)   bands (ev):

   -16.3899 -16.3899 -16.3899 -16.3899 -16.3420 -16.3420 -16.3420 -16.3420
    -9.2259  -9.2258  -9.2258  -9.2258  -9.1774  -9.1773  -9.1773  -9.1772
    -3.4975  -3.4975  -3.4975  -3.4975  -3.3332  -3.3332  -3.3332  -3.3332
    -3.2519  -3.2519  -3.2519  -3.2519  -3.2031  -3.2031  -3.2031  -3.2031
    -3.1951  -3.1951  -3.1951  -3.1951  -2.9689  -2.9689  -2.9689  -2.9689
     2.2751   2.2752   2.2752   2.2753   2.3165   2.3165   2.3165   2.3165
     2.3201   2.3201   2.3201   2.3201   2.6066   2.6066   2.6066   2.6066
     2.6105   2.6105   2.6105   2.6105   2.6936   2.6937   2.6937   2.6938
     9.5702   9.5702   9.5702   9.5702  10.0278  10.0279  10.0279  10.0280
    10.1948  10.1948  10.1948  10.1949  10.4958

     occupation numbers 
     1.0000   1.0000   1.0000   1.0000   1.0000   1.0000   1.0000   1.0000
     1.0000   1.0000   1.0000   1.0000   1.0000   1.0000   1.0000   1.0000
     1.0000   1.0000   1.0000   1.0000   1.0000   1.0000   1.0000   1.0000
     1.0000   1.0000   1.0000   1.0000   1.0000   1.0000   1.0000   1.0000
     1.0000   1.0000   1.0000   1.0000   1.0000   1.0000   1.0000   1.0000
     1.0000   1.0000   1.0000   1.0000   1.0000   1.0000   1.0000   1.0000
     1.0000   1.0000   1.0000   1.0000   1.0000   1.0000   1.0000   1.0000
     1.0000   1.0000   1.0000   1.0000   1.0000   1.0000   1.0000   1.0000
     0.0000   0.0000   0.0000   0.0000   0.0000   0.0000   0.0000   0.0000
     0.0000   0.0000   0.0000   0.0000   0.0000

          k =-0.5000-0.5000-0.5000 ( 85304 PWs)   bands (ev):

   -16.3661 -16.3661 -16.3661 -16.3661 -16.3661 -16.3661 -16.3661 -16.3661
    -9.2016  -9.2015  -9.2015  -9.2015  -9.2015  -9.2015  -9.2015  -9.2014
    -3.2695  -3.2695  -3.2695  -3.2695  -3.2695  -3.2695  -3.2695  -3.2695
    -3.2695  -3.2695  -3.2695  -3.2695  -3.2695  -3.2695  -3.2695  -3.2695
    -3.1982  -3.1982  -3.1982  -3.1982  -3.1982  -3.1982  -3.1982  -3.1982
     2.4650   2.4650   2.4650   2.4650   2.4650   2.4650   2.4650   2.4650
     2.4650   2.4650   2.4650   2.4651   2.4651   2.4651   2.4651   2.4651
     2.4760   2.4760   2.4760   2.4760   2.4760   2.4760   2.4760   2.4761
    10.4563  10.4563  10.4563  10.4564  10.4564  10.4564  10.4564  10.4564
    10.6087  10.6087  10.6087  10.6087  10.6087

     occupation numbers 
     1.0000   1.0000   1.0000   1.0000   1.0000   1.0000   1.0000   1.0000
     1.0000   1.0000   1.0000   1.0000   1.0000   1.0000   1.0000   1.0000
     1.0000   1.0000   1.0000   1.0000   1.0000   1.0000   1.0000   1.0000
     1.0000   1.0000   1.0000   1.0000   1.0000   1.0000   1.0000   1.0000
     1.0000   1.0000   1.0000   1.0000   1.0000   1.0000   1.0000   1.0000
     1.0000   1.0000   1.0000   1.0000   1.0000   1.0000   1.0000   1.0000
     1.0000   1.0000   1.0000   1.0000   1.0000   1.0000   1.0000   1.0000
     1.0000   1.0000   1.0000   1.0000   1.0000   1.0000   1.0000   1.0000
     0.0000   0.0000   0.0000   0.0000   0.0000   0.0000   0.0000   0.0000
     0.0000   0.0000   0.0000   0.0000   0.0000

     the Fermi energy is     4.3382 ev

!    total energy              =    -638.67803902 Ry
     estimated scf accuracy    <          1.6E-09 Ry
     smearing contrib. (-TS)   =       0.00000000 Ry
     internal energy E=F+TS    =    -638.67803902 Ry

     The total energy is F=E-TS. E is the sum of the following terms:
     one-electron contribution =     -57.43538087 Ry
     hartree contribution      =      81.61687975 Ry
     xc contribution           =    -182.79301204 Ry
     ewald contribution        =    -480.06652586 Ry

     convergence has been achieved in  10 iterations

     Forces acting on atoms (cartesian axes, Ry/au):

     atom    1 type  1   force =     0.00000000   -0.00000000    0.00000000
     atom    2 type  2   force =    -0.00000018   -0.00000018   -0.00000018
     atom    3 type  1   force =     0.00000000    0.00000000    0.00000000
     atom    4 type  2   force =    -0.00000018   -0.00000018    0.00000018
     atom    5 type  1   force =     0.00000000    0.00000000    0.00000000
     atom    6 type  2   force =    -0.00000018    0.00000018   -0.00000018
     atom    7 type  1   force =     0.00000000    0.00000000    0.00000000
     atom    8 type  2   force =    -0.00000018    0.00000018    0.00000018
     atom    9 type  1   force =     0.00000000    0.00000000    0.00000000
     atom   10 type  2   force =     0.00000018   -0.00000018   -0.00000018
     atom   11 type  1   force =     0.00000000    0.00000000    0.00000000
     atom   12 type  2   force =     0.00000018   -0.00000018    0.00000018
     atom   13 type  1   force =     0.00000000    0.00000000    0.00000000
     atom   14 type  2   force =     0.00000018    0.00000018   -0.00000018
     atom   15 type  1   force =     0.00000000    0.00000000    0.00000000
     atom   16 type  2   force =     0.00000018    0.00000018    0.00000018
     The non-local contrib.  to forces
     atom    1 type  1   force =     0.00000000    0.00000000    0.00000000
     atom    2 type  2   force =    -0.00000072   -0.00000072   -0.00000072
     atom    3 type  1   force =     0.00000000    0.00000000    0.00000000
     atom    4 type  2   force =    -0.00000072   -0.00000072    0.00000072
     atom    5 type  1   force =     0.00000000    0.00000000    0.00000000
     atom    6 type  2   force =    -0.00000072    0.00000072   -0.00000072
     atom    7 type  1   force =     0.00000000    0.00000000    0.00000000
     atom    8 type  2   force =    -0.00000072    0.00000072    0.00000072
     atom    9 type  1   force =     0.00000000    0.00000000    0.00000000
     atom   10 type  2   force =     0.00000072   -0.00000072   -0.00000072
     atom   11 type  1   force =     0.00000000    0.00000000    0.00000000
     atom   12 type  2   force =     0.00000072   -0.00000072    0.00000072
     atom   13 type  1   force =     0.00000000    0.00000000    0.00000000
     atom   14 type  2   force =     0.00000072    0.00000072   -0.00000072
     atom   15 type  1   force =     0.00000000    0.00000000    0.00000000
     atom   16 type  2   force =     0.00000072    0.00000072    0.00000072
     The ionic contribution  to forces
     atom    1 type  1   force =    -0.00001196   -0.00001196   -0.00001196
     atom    2 type  2   force =    -0.00000268   -0.00000268   -0.00000268
     atom    3 type  1   force =    -0.00001196   -0.00001196    0.00000989
     atom    4 type  2   force =    -0.00000268   -0.00000268    0.00000475
     atom    5 type  1   force =    -0.00001196    0.00000989   -0.00001196
     atom    6 type  2   force =    -0.00000268    0.00000475   -0.00000268
     atom    7 type  1   force =    -0.00001196    0.00000989    0.00000989
     atom    8 type  2   force =    -0.00000268    0.00000475    0.00000475
     atom    9 type  1   force =     0.00000989   -0.00001196   -0.00001196
     atom   10 type  2   force =     0.00000475   -0.00000268   -0.00000268
     atom   11 type  1   force =     0.00000989   -0.00001196    0.00000989
     atom   12 type  2   force =     0.00000475   -0.00000268    0.00000475
     atom   13 type  1   force =     0.00000989    0.00000989   -0.00001196
     atom   14 type  2   force =     0.00000475    0.00000475   -0.00000268
     atom   15 type  1   force =     0.00000989    0.00000989    0.00000989
     atom   16 type  2   force =     0.00000475    0.00000475    0.00000475
     The local contribution  to forces
     atom    1 type  1   force =     0.00000000    0.00000000    0.00000000
     atom    2 type  2   force =     0.00003272    0.00003272    0.00003272
     atom    3 type  1   force =     0.00000000    0.00000000    0.00002325
     atom    4 type  2   force =     0.00003272    0.00003272    0.00002322
     atom    5 type  1   force =     0.00000000    0.00002325    0.00000000
     atom    6 type  2   force =     0.00003272    0.00002322    0.00003272
     atom    7 type  1   force =     0.00000000    0.00002325    0.00002325
     atom    8 type  2   force =     0.00003272    0.00002322    0.00002322
     atom    9 type  1   force =     0.00002325    0.00000000    0.00000000
     atom   10 type  2   force =     0.00002322    0.00003272    0.00003272
     atom   11 type  1   force =     0.00002325    0.00000000    0.00002325
     atom   12 type  2   force =     0.00002322    0.00003272    0.00002322
     atom   13 type  1   force =     0.00002325    0.00002325    0.00000000
     atom   14 type  2   force =     0.00002322    0.00002322    0.00003272
     atom   15 type  1   force =     0.00002325    0.00002325    0.00002325
     atom   16 type  2   force =     0.00002322    0.00002322    0.00002322
     The core correction contribution to forces
     atom    1 type  1   force =    -0.00000000   -0.00000000   -0.00000000
     atom    2 type  2   force =    -0.00000225   -0.00000225   -0.00000225
     atom    3 type  1   force =    -0.00000000   -0.00000000    0.00000004
     atom    4 type  2   force =    -0.00000225   -0.00000225   -0.00000233
     atom    5 type  1   force =    -0.00000000    0.00000004   -0.00000000
     atom    6 type  2   force =    -0.00000225   -0.00000233   -0.00000225
     atom    7 type  1   force =    -0.00000000    0.00000004    0.00000004
     atom    8 type  2   force =    -0.00000225   -0.00000233   -0.00000233
     atom    9 type  1   force =     0.00000004   -0.00000000   -0.00000000
     atom   10 type  2   force =    -0.00000233   -0.00000225   -0.00000225
     atom   11 type  1   force =     0.00000004   -0.00000000    0.00000004
     atom   12 type  2   force =    -0.00000233   -0.00000225   -0.00000233
     atom   13 type  1   force =     0.00000004    0.00000004   -0.00000000
     atom   14 type  2   force =    -0.00000233   -0.00000233   -0.00000225
     atom   15 type  1   force =     0.00000004    0.00000004    0.00000004
     atom   16 type  2   force =    -0.00000233   -0.00000233   -0.00000233
     The Hubbard contrib.    to forces
     atom    1 type  1   force =     0.00000000    0.00000000    0.00000000
     atom    2 type  2   force =     0.00000000    0.00000000    0.00000000
     atom    3 type  1   force =     0.00000000    0.00000000    0.00000000
     atom    4 type  2   force =     0.00000000    0.00000000    0.00000000
     atom    5 type  1   force =     0.00000000    0.00000000    0.00000000
     atom    6 type  2   force =     0.00000000    0.00000000    0.00000000
     atom    7 type  1   force =     0.00000000    0.00000000    0.00000000
     atom    8 type  2   force =     0.00000000    0.00000000    0.00000000
     atom    9 type  1   force =     0.00000000    0.00000000    0.00000000
     atom   10 type  2   force =     0.00000000    0.00000000    0.00000000
     atom   11 type  1   force =     0.00000000    0.00000000    0.00000000
     atom   12 type  2   force =     0.00000000    0.00000000    0.00000000
     atom   13 type  1   force =     0.00000000    0.00000000    0.00000000
     atom   14 type  2   force =     0.00000000    0.00000000    0.00000000
     atom   15 type  1   force =     0.00000000    0.00000000    0.00000000
     atom   16 type  2   force =     0.00000000    0.00000000    0.00000000
     The SCF correction term to forces
     atom    1 type  1   force =     0.00000000    0.00000000    0.00000000
     atom    2 type  2   force =    -0.00000054   -0.00000054   -0.00000054
     atom    3 type  1   force =     0.00000000    0.00000000   -0.00000000
     atom    4 type  2   force =    -0.00000054   -0.00000054    0.00000054
     atom    5 type  1   force =     0.00000000   -0.00000000    0.00000000
     atom    6 type  2   force =    -0.00000054    0.00000054   -0.00000054
     atom    7 type  1   force =     0.00000000   -0.00000000   -0.00000000
     atom    8 type  2   force =    -0.00000054    0.00000054    0.00000054
     atom    9 type  1   force =    -0.00000000    0.00000000    0.00000000
     atom   10 type  2   force =     0.00000054   -0.00000054   -0.00000054
     atom   11 type  1   force =    -0.00000000    0.00000000   -0.00000000
     atom   12 type  2   force =     0.00000054   -0.00000054    0.00000054
     atom   13 type  1   force =    -0.00000000   -0.00000000    0.00000000
     atom   14 type  2   force =     0.00000054    0.00000054   -0.00000054
     atom   15 type  1   force =    -0.00000000   -0.00000000   -0.00000000
     atom   16 type  2   force =     0.00000054    0.00000054    0.00000054

     Total force =     0.000001     Total SCF correction =     0.000003
     SCF correction compared to forces is large: reduce conv_thr to get better values


     Computing stress (Cartesian axis) and pressure

          total   stress  (Ry/bohr**3)                   (kbar)     P=        6.91
   0.00004700   0.00000000   0.00000000            6.91        0.00        0.00
   0.00000000   0.00004700   0.00000000            0.00        6.91        0.00
   0.00000000   0.00000000   0.00004700            0.00        0.00        6.91

     kinetic stress (kbar)   4405.20      0.00      0.00
                                0.00   4405.20      0.00
                                0.00      0.00   4405.20

     local   stress (kbar)  -2452.92     -0.00     -0.00
                               -0.00  -2452.92     -0.00
                               -0.00     -0.00  -2452.92

     nonloc. stress (kbar)   4831.49      0.00      0.00
                                0.00   4831.49      0.00
                                0.00      0.00   4831.49

     hartree stress (kbar)   1041.92      0.00     -0.00
                                0.00   1041.92     -0.00
                               -0.00     -0.00   1041.92

     exc-cor stress (kbar)   1613.16     -0.00     -0.00
                               -0.00   1613.16     -0.00
                               -0.00     -0.00   1613.16

     corecor stress (kbar)  -3303.41      0.00      0.00
                                0.00  -3303.41      0.00
                                0.00      0.00  -3303.41

     ewald   stress (kbar)  -6128.53      0.00      0.00
                                0.00  -6128.53      0.00
                                0.00      0.00  -6128.53

     hubbard stress (kbar)      0.00      0.00      0.00
                                0.00      0.00      0.00
                                0.00      0.00      0.00

     DFT-D   stress (kbar)      0.00      0.00      0.00
                                0.00      0.00      0.00
                                0.00      0.00      0.00

     XDM     stress (kbar)      0.00      0.00      0.00
                                0.00      0.00      0.00
                                0.00      0.00      0.00

     dft-nl  stress (kbar)      0.00      0.00      0.00
                                0.00      0.00      0.00
                                0.00      0.00      0.00

     TS-vdW  stress (kbar)      0.00      0.00      0.00
                                0.00      0.00      0.00
                                0.00      0.00      0.00


                                0.00      0.00      0.00
                                0.00      0.00      0.00


                                0.00      0.00      0.00


     BFGS Geometry Optimization
     Energy error            =      0.0E+00 Ry
     Gradient error          =      1.8E-07 Ry/Bohr
     Cell gradient error     =      6.9E+00 kbar

     number of scf cycles    =   1
     number of bfgs steps    =   0

     enthalpy           new  =    -638.6780390230 Ry

     new trust radius        =       0.0145650513 bohr
     new conv_thr            =       0.0000000096 Ry

     new unit-cell volume =   3854.61989 a.u.^3 (   571.19574 Ang^3 )
     density =      3.91551 g/cm^3

CELL_PARAMETERS (angstrom)
   8.297138108   0.000000000   0.000000000
   0.000000000   8.297138108   0.000000000
   0.000000000   0.000000000   8.297138108

ATOMIC_POSITIONS (angstrom)
Cs            0.0000000000       -0.0000000000        0.0000000000
Cl            2.0742834296        2.0742834296        2.0742834296
Cs            0.0000000000        0.0000000000        4.1485670515
Cl            2.0742834296        2.0742834296        6.2228516746
Cs            0.0000000000        4.1485670515        0.0000000000
Cl            2.0742834296        6.2228516746        2.0742834296
Cs            0.0000000000        4.1485670515        4.1485670515
Cl            2.0742834296        6.2228516746        6.2228516746
Cs            4.1485670515        0.0000000000        0.0000000000
Cl            6.2228516746        2.0742834296        2.0742834296
Cs            4.1485670515        0.0000000000        4.1485670515
Cl            6.2228516746        2.0742834296        6.2228516746
Cs            4.1485670515        4.1485670515        0.0000000000
Cl            6.2228516746        6.2228516746        2.0742834296
Cs            4.1485670515        4.1485670515        4.1485670515
Cl            6.2228516746        6.2228516746        6.2228516746



     Writing output data file ./out/pwscf.save/
     NEW-OLD atomic charge density approx. for the potential
     extrapolated charge  128.44909, renormalised to  128.00000

     total cpu time spent up to now is       84.8 secs

     Self-consistent Calculation

     iteration #  1     ecut=   120.00 Ry     beta= 0.40
     Davidson diagonalization with overlap

---- Real-time Memory Report at c_bands before calling an iterative solver
           437 MiB given to the printing process from OS
             0 MiB allocation reported by mallinfo(arena+hblkhd)
        172287 MiB available memory on the node where the printing process lives
------------------
     ethr =  1.00E-06,  avg # of iterations =  2.3

     total cpu time spent up to now is       89.5 secs

     total energy              =    -638.67732326 Ry
     estimated scf accuracy    <       0.00089235 Ry

     iteration #  2     ecut=   120.00 Ry     beta= 0.40
     Davidson diagonalization with overlap

---- Real-time Memory Report at c_bands before calling an iterative solver
           437 MiB given to the printing process from OS
             0 MiB allocation reported by mallinfo(arena+hblkhd)
        173575 MiB available memory on the node where the printing process lives
------------------
     ethr =  6.97E-07,  avg # of iterations =  3.0

     total cpu time spent up to now is       94.6 secs

     total energy              =    -638.67871703 Ry
     estimated scf accuracy    <       0.00078000 Ry

     iteration #  3     ecut=   120.00 Ry     beta= 0.40
     Davidson diagonalization with overlap

---- Real-time Memory Report at c_bands before calling an iterative solver
           437 MiB given to the printing process from OS
             0 MiB allocation reported by mallinfo(arena+hblkhd)
        173569 MiB available memory on the node where the printing process lives
------------------
     ethr =  6.09E-07,  avg # of iterations =  1.0

     total cpu time spent up to now is       98.1 secs

     total energy              =    -638.67864753 Ry
     estimated scf accuracy    <       0.00028137 Ry

     iteration #  4     ecut=   120.00 Ry     beta= 0.40
     Davidson diagonalization with overlap

---- Real-time Memory Report at c_bands before calling an iterative solver
           437 MiB given to the printing process from OS
             0 MiB allocation reported by mallinfo(arena+hblkhd)
        173567 MiB available memory on the node where the printing process lives
------------------
     ethr =  2.20E-07,  avg # of iterations =  2.0

     total cpu time spent up to now is      102.2 secs

     total energy              =    -638.67865067 Ry
     estimated scf accuracy    <       0.00005803 Ry

     iteration #  5     ecut=   120.00 Ry     beta= 0.40
     Davidson diagonalization with overlap

---- Real-time Memory Report at c_bands before calling an iterative solver
           437 MiB given to the printing process from OS
             0 MiB allocation reported by mallinfo(arena+hblkhd)
        173566 MiB available memory on the node where the printing process lives
------------------
     ethr =  4.53E-08,  avg # of iterations =  1.4

     total cpu time spent up to now is      105.8 secs

     total energy              =    -638.67864157 Ry
     estimated scf accuracy    <       0.00001804 Ry

     iteration #  6     ecut=   120.00 Ry     beta= 0.40
     Davidson diagonalization with overlap

---- Real-time Memory Report at c_bands before calling an iterative solver
           437 MiB given to the printing process from OS
             0 MiB allocation reported by mallinfo(arena+hblkhd)
        173560 MiB available memory on the node where the printing process lives
------------------
     ethr =  1.41E-08,  avg # of iterations =  2.3

     total cpu time spent up to now is      110.9 secs

     total energy              =    -638.67864761 Ry
     estimated scf accuracy    <       0.00000286 Ry

     iteration #  7     ecut=   120.00 Ry     beta= 0.40
     Davidson diagonalization with overlap

---- Real-time Memory Report at c_bands before calling an iterative solver
           437 MiB given to the printing process from OS
             0 MiB allocation reported by mallinfo(arena+hblkhd)
        173542 MiB available memory on the node where the printing process lives
------------------
     ethr =  2.24E-09,  avg # of iterations =  3.4

     total cpu time spent up to now is      118.0 secs

     total energy              =    -638.67864759 Ry
     estimated scf accuracy    <       0.00000040 Ry

     iteration #  8     ecut=   120.00 Ry     beta= 0.40
     Davidson diagonalization with overlap

---- Real-time Memory Report at c_bands before calling an iterative solver
           437 MiB given to the printing process from OS
             0 MiB allocation reported by mallinfo(arena+hblkhd)
        173536 MiB available memory on the node where the printing process lives
------------------
     ethr =  3.12E-10,  avg # of iterations =  3.0

     total cpu time spent up to now is      126.4 secs

     total energy              =    -638.67864769 Ry
     estimated scf accuracy    <       0.00000053 Ry

     iteration #  9     ecut=   120.00 Ry     beta= 0.40
     Davidson diagonalization with overlap

---- Real-time Memory Report at c_bands before calling an iterative solver
           437 MiB given to the printing process from OS
             0 MiB allocation reported by mallinfo(arena+hblkhd)
        173502 MiB available memory on the node where the printing process lives
------------------
     ethr =  3.12E-10,  avg # of iterations =  2.0

     total cpu time spent up to now is      132.1 secs

     End of self-consistent calculation

          k = 0.0000 0.0000 0.0000 ( 85159 PWs)   bands (ev):

   -16.5079 -16.4322 -16.4322 -16.4322 -16.3673 -16.3673 -16.3673 -16.3061
    -9.3021  -9.3021  -9.3021  -9.2635  -9.1789  -9.1789  -9.1789  -9.1039
    -3.7370  -3.7370  -3.7370  -3.7370  -3.7370  -3.7370  -3.5172  -3.5172
    -3.5172  -3.5143  -3.5143  -3.5143  -3.0053  -3.0053  -3.0053  -2.8730
    -2.8730  -2.8730  -2.8730  -2.8730  -2.8730  -2.7903  -2.7903  -2.7903
     1.7642   1.7642   1.7642   1.8450   1.8450   1.8450   2.4667   2.4667
     2.4667   2.4667   2.4667   2.4667   2.6725   2.6725   2.6725   2.6725
     2.6725   2.6725   2.8382   2.8382   2.8382   2.8879   2.8879   2.8879
     8.0745   8.3114   8.3114   8.8297   8.8297   8.8297   8.9075   8.9075
     8.9075   9.3089   9.3089  10.4170  10.4172

     occupation numbers 
     1.0000   1.0000   1.0000   1.0000   1.0000   1.0000   1.0000   1.0000
     1.0000   1.0000   1.0000   1.0000   1.0000   1.0000   1.0000   1.0000
     1.0000   1.0000   1.0000   1.0000   1.0000   1.0000   1.0000   1.0000
     1.0000   1.0000   1.0000   1.0000   1.0000   1.0000   1.0000   1.0000
     1.0000   1.0000   1.0000   1.0000   1.0000   1.0000   1.0000   1.0000
     1.0000   1.0000   1.0000   1.0000   1.0000   1.0000   1.0000   1.0000
     1.0000   1.0000   1.0000   1.0000   1.0000   1.0000   1.0000   1.0000
     1.0000   1.0000   1.0000   1.0000   1.0000   1.0000   1.0000   1.0000
     0.0000   0.0000   0.0000   0.0000   0.0000   0.0000   0.0000   0.0000
     0.0000   0.0000   0.0000   0.0000   0.0000

          k = 0.0000 0.0000 0.2497 ( 85323 PWs)   bands (ev):

   -16.4970 -16.4435 -16.4228 -16.4228 -16.3769 -16.3769 -16.3584 -16.3152
    -9.2956  -9.2847  -9.2847  -9.2683  -9.1976  -9.1976  -9.1681  -9.1151
    -3.7065  -3.7065  -3.7033  -3.7033  -3.6258  -3.6258  -3.5492  -3.5492
    -3.5478  -3.5478  -3.4507  -3.4172  -3.0896  -3.0185  -3.0185  -2.9866
    -2.9866  -2.9065  -2.8930  -2.8930  -2.8611  -2.8611  -2.8026  -2.8026
     1.8820   1.8820   1.9017   1.9357   1.9357   1.9683   2.3744   2.3744
     2.3750   2.3750   2.4877   2.4877   2.6326   2.6326   2.6639   2.6864
     2.6957   2.6957   2.7055   2.7055   2.8128   2.8128   2.8578   2.8578
     8.4130   8.4327   8.6725   8.9730   8.9730   9.0873   9.1383   9.1383
     9.2477   9.2620   9.4331   9.4331  10.0377

     occupation numbers 
     1.0000   1.0000   1.0000   1.0000   1.0000   1.0000   1.0000   1.0000
     1.0000   1.0000   1.0000   1.0000   1.0000   1.0000   1.0000   1.0000
     1.0000   1.0000   1.0000   1.0000   1.0000   1.0000   1.0000   1.0000
     1.0000   1.0000   1.0000   1.0000   1.0000   1.0000   1.0000   1.0000
     1.0000   1.0000   1.0000   1.0000   1.0000   1.0000   1.0000   1.0000
     1.0000   1.0000   1.0000   1.0000   1.0000   1.0000   1.0000   1.0000
     1.0000   1.0000   1.0000   1.0000   1.0000   1.0000   1.0000   1.0000
     1.0000   1.0000   1.0000   1.0000   1.0000   1.0000   1.0000   1.0000
     0.0000   0.0000   0.0000   0.0000   0.0000   0.0000   0.0000   0.0000
     0.0000   0.0000   0.0000   0.0000   0.0000

          k = 0.0000 0.0000-0.4994 ( 85342 PWs)   bands (ev):

   -16.4704 -16.4704 -16.4000 -16.4000 -16.4000 -16.4000 -16.3369 -16.3369
    -9.2811  -9.2810  -9.2418  -9.2418  -9.2417  -9.2417  -9.1419  -9.1418
    -3.6299  -3.6299  -3.6299  -3.6299  -3.6240  -3.6240  -3.6240  -3.6240
    -3.3388  -3.3388  -3.3388  -3.3388  -3.2791  -3.2790  -3.1713  -3.1713
    -2.9405  -2.9405  -2.9405  -2.9405  -2.8320  -2.8320  -2.8320  -2.8320
     2.1405   2.1405   2.1405   2.1405   2.1548   2.1548   2.1548   2.1548
     2.2637   2.2638   2.2917   2.2917   2.5508   2.5508   2.5508   2.5508
     2.7531   2.7531   2.7532   2.7532   2.7830   2.7830   2.7831   2.7831
     8.6996   8.6996   9.2271   9.2271   9.2968   9.2968   9.2968   9.2968
     9.6974   9.6975   9.7946   9.7946   9.7946

     occupation numbers 
     1.0000   1.0000   1.0000   1.0000   1.0000   1.0000   1.0000   1.0000
     1.0000   1.0000   1.0000   1.0000   1.0000   1.0000   1.0000   1.0000
     1.0000   1.0000   1.0000   1.0000   1.0000   1.0000   1.0000   1.0000
     1.0000   1.0000   1.0000   1.0000   1.0000   1.0000   1.0000   1.0000
     1.0000   1.0000   1.0000   1.0000   1.0000   1.0000   1.0000   1.0000
     1.0000   1.0000   1.0000   1.0000   1.0000   1.0000   1.0000   1.0000
     1.0000   1.0000   1.0000   1.0000   1.0000   1.0000   1.0000   1.0000
     1.0000   1.0000   1.0000   1.0000   1.0000   1.0000   1.0000   1.0000
     0.0000   0.0000   0.0000   0.0000   0.0000   0.0000   0.0000   0.0000
     0.0000   0.0000   0.0000   0.0000   0.0000

          k = 0.0000 0.2497 0.2497 ( 85247 PWs)   bands (ev):

   -16.4863 -16.4338 -16.4338 -16.4135 -16.3868 -16.3680 -16.3680 -16.3243
    -9.2815  -9.2815  -9.2699  -9.2681  -9.2122  -9.1858  -9.1858  -9.1274
    -3.6813  -3.6813  -3.6396  -3.5976  -3.5976  -3.5724  -3.5692  -3.5569
    -3.4788  -3.4788  -3.4707  -3.4283  -3.1234  -3.0336  -3.0287  -3.0237
    -3.0237  -2.9758  -2.9688  -2.9223  -2.9223  -2.8800  -2.8800  -2.8161
     1.9530   1.9711   1.9866   1.9866   2.0049   2.1385   2.3144   2.3163
     2.3163   2.3763   2.3763   2.5131   2.5360   2.5690   2.6625   2.6625
     2.6989   2.6989   2.7210   2.7210   2.7427   2.7969   2.8035   2.8356
     8.6076   8.7567   8.8878   9.0326   9.2548   9.2548   9.3599   9.3768
     9.3768   9.4090   9.4090  10.0577  10.0577

     occupation numbers 
     1.0000   1.0000   1.0000   1.0000   1.0000   1.0000   1.0000   1.0000
     1.0000   1.0000   1.0000   1.0000   1.0000   1.0000   1.0000   1.0000
     1.0000   1.0000   1.0000   1.0000   1.0000   1.0000   1.0000   1.0000
     1.0000   1.0000   1.0000   1.0000   1.0000   1.0000   1.0000   1.0000
     1.0000   1.0000   1.0000   1.0000   1.0000   1.0000   1.0000   1.0000
     1.0000   1.0000   1.0000   1.0000   1.0000   1.0000   1.0000   1.0000
     1.0000   1.0000   1.0000   1.0000   1.0000   1.0000   1.0000   1.0000
     1.0000   1.0000   1.0000   1.0000   1.0000   1.0000   1.0000   1.0000
     0.0000   0.0000   0.0000   0.0000   0.0000   0.0000   0.0000   0.0000
     0.0000   0.0000   0.0000   0.0000   0.0000

          k = 0.0000 0.2497-0.4994 ( 85274 PWs)   bands (ev):

   -16.4603 -16.4603 -16.4105 -16.4105 -16.3909 -16.3909 -16.3463 -16.3463
    -9.2749  -9.2748  -9.2471  -9.2470  -9.2275  -9.2275  -9.1569  -9.1568
    -3.6275  -3.6275  -3.6234  -3.6234  -3.5508  -3.5508  -3.5278  -3.5278
    -3.3183  -3.3183  -3.3115  -3.3115  -3.3017  -3.3017  -3.1937  -3.1937
    -3.0366  -3.0366  -2.9595  -2.9595  -2.9250  -2.9250  -2.8483  -2.8483
     2.1358   2.1359   2.1585   2.1586   2.1646   2.1646   2.1660   2.1661
     2.2624   2.2624   2.4245   2.4245   2.4291   2.4291   2.5770   2.5771
     2.7305   2.7306   2.7458   2.7458   2.7588   2.7588   2.7799   2.7799
     8.9154   8.9154   9.2477   9.2477   9.3831   9.3832   9.6696   9.6696
     9.8121   9.8121   9.8220   9.8221   9.8921

     occupation numbers 
     1.0000   1.0000   1.0000   1.0000   1.0000   1.0000   1.0000   1.0000
     1.0000   1.0000   1.0000   1.0000   1.0000   1.0000   1.0000   1.0000
     1.0000   1.0000   1.0000   1.0000   1.0000   1.0000   1.0000   1.0000
     1.0000   1.0000   1.0000   1.0000   1.0000   1.0000   1.0000   1.0000
     1.0000   1.0000   1.0000   1.0000   1.0000   1.0000   1.0000   1.0000
     1.0000   1.0000   1.0000   1.0000   1.0000   1.0000   1.0000   1.0000
     1.0000   1.0000   1.0000   1.0000   1.0000   1.0000   1.0000   1.0000
     1.0000   1.0000   1.0000   1.0000   1.0000   1.0000   1.0000   1.0000
     0.0000   0.0000   0.0000   0.0000   0.0000   0.0000   0.0000   0.0000
     0.0000   0.0000   0.0000   0.0000   0.0000

          k = 0.0000-0.4994-0.4994 ( 85380 PWs)   bands (ev):

   -16.4355 -16.4355 -16.4355 -16.4355 -16.3687 -16.3687 -16.3687 -16.3687
    -9.2606  -9.2606  -9.2606  -9.2605  -9.1926  -9.1925  -9.1925  -9.1925
    -3.6239  -3.6239  -3.6239  -3.6239  -3.3918  -3.3918  -3.3918  -3.3918
    -3.3027  -3.3027  -3.3027  -3.3027  -3.2175  -3.2175  -3.2175  -3.2175
    -3.2103  -3.2103  -3.2103  -3.2103  -2.8871  -2.8871  -2.8871  -2.8871
     2.1766   2.1767   2.1767   2.1767   2.2248   2.2248   2.2248   2.2248
     2.2304   2.2304   2.2304   2.2304   2.6297   2.6297   2.6297   2.6297
     2.6407   2.6407   2.6407   2.6407   2.7705   2.7706   2.7706   2.7707
     9.1459   9.1459   9.1459   9.1459   9.7324   9.7325   9.7325   9.7325
     9.9821   9.9821   9.9821   9.9822  10.4930

     occupation numbers 
     1.0000   1.0000   1.0000   1.0000   1.0000   1.0000   1.0000   1.0000
[...]

          k = 0.2464 0.2464-0.4929 ( 88962 PWs)   bands (ev):

   -16.8430 -16.8430 -16.8013 -16.8013 -16.8013 -16.8013 -16.7624 -16.7624
    -9.5347  -9.5347  -9.5032  -9.5032  -9.5032  -9.5032  -9.4472  -9.4471
    -3.8999  -3.8999  -3.8999  -3.8999  -3.8928  -3.8928  -3.8741  -3.8741
    -3.6868  -3.6868  -3.6803  -3.6803  -3.6803  -3.6803  -3.6053  -3.6053
    -3.4564  -3.4564  -3.4246  -3.4245  -3.3904  -3.3904  -3.3903  -3.3903
     1.8914   1.8914   1.9194   1.9194   1.9195   1.9195   1.9577   1.9578
     2.0189   2.0189   2.1672   2.1673   2.1885   2.1885   2.1885   2.1885
     2.3734   2.3735   2.4074   2.4074   2.4075   2.4075   2.4230   2.4231
     8.8704   8.8704   9.0279   9.0282   9.2217   9.2217   9.2217   9.2217
     9.5326   9.5714   9.5718   9.5719   9.5719

     occupation numbers 
     1.0000   1.0000   1.0000   1.0000   1.0000   1.0000   1.0000   1.0000
     1.0000   1.0000   1.0000   1.0000   1.0000   1.0000   1.0000   1.0000
     1.0000   1.0000   1.0000   1.0000   1.0000   1.0000   1.0000   1.0000
     1.0000   1.0000   1.0000   1.0000   1.0000   1.0000   1.0000   1.0000
     1.0000   1.0000   1.0000   1.0000   1.0000   1.0000   1.0000   1.0000
     1.0000   1.0000   1.0000   1.0000   1.0000   1.0000   1.0000   1.0000
     1.0000   1.0000   1.0000   1.0000   1.0000   1.0000   1.0000   1.0000
     1.0000   1.0000   1.0000   1.0000   1.0000   1.0000   1.0000   1.0000
     0.0000   0.0000   0.0000   0.0000   0.0000   0.0000   0.0000   0.0000
     0.0000   0.0000   0.0000   0.0000   0.0000

          k = 0.2464-0.4929-0.4929 ( 88976 PWs)   bands (ev):

   -16.8222 -16.8222 -16.8222 -16.8222 -16.7819 -16.7819 -16.7819 -16.7819
    -9.5188  -9.5187  -9.5187  -9.5186  -9.4754  -9.4754  -9.4754  -9.4753
    -3.8884  -3.8884  -3.8884  -3.8884  -3.7359  -3.7359  -3.7359  -3.7359
    -3.6667  -3.6667  -3.6667  -3.6667  -3.6263  -3.6263  -3.6263  -3.6263
    -3.6241  -3.6241  -3.6241  -3.6241  -3.4179  -3.4179  -3.4179  -3.4179
     1.9642   1.9643   1.9643   1.9644   2.0165   2.0165   2.0165   2.0165
     2.0262   2.0262   2.0262   2.0262   2.2754   2.2754   2.2754   2.2754
     2.2757   2.2757   2.2757   2.2757   2.3691   2.3691   2.3691   2.3692
     9.1256   9.1256   9.1256   9.1256   9.5216   9.5216   9.5216   9.5217
     9.7404   9.7404   9.7404   9.7404  10.0459

     occupation numbers 
     1.0000   1.0000   1.0000   1.0000   1.0000   1.0000   1.0000   1.0000
     1.0000   1.0000   1.0000   1.0000   1.0000   1.0000   1.0000   1.0000
     1.0000   1.0000   1.0000   1.0000   1.0000   1.0000   1.0000   1.0000
     1.0000   1.0000   1.0000   1.0000   1.0000   1.0000   1.0000   1.0000
     1.0000   1.0000   1.0000   1.0000   1.0000   1.0000   1.0000   1.0000
     1.0000   1.0000   1.0000   1.0000   1.0000   1.0000   1.0000   1.0000
     1.0000   1.0000   1.0000   1.0000   1.0000   1.0000   1.0000   1.0000
     1.0000   1.0000   1.0000   1.0000   1.0000   1.0000   1.0000   1.0000
     0.0000   0.0000   0.0000   0.0000   0.0000   0.0000   0.0000   0.0000
     0.0000   0.0000   0.0000   0.0000   0.0000

          k =-0.4929-0.4929-0.4929 ( 89168 PWs)   bands (ev):

   -16.8022 -16.8022 -16.8022 -16.8022 -16.8022 -16.8022 -16.8022 -16.8022
    -9.4971  -9.4971  -9.4971  -9.4971  -9.4970  -9.4970  -9.4970  -9.4969
    -3.6821  -3.6821  -3.6821  -3.6821  -3.6821  -3.6821  -3.6821  -3.6821
    -3.6821  -3.6821  -3.6821  -3.6821  -3.6821  -3.6821  -3.6821  -3.6821
    -3.6254  -3.6254  -3.6254  -3.6254  -3.6254  -3.6254  -3.6254  -3.6254
     2.1520   2.1520   2.1520   2.1520   2.1520   2.1520   2.1520   2.1520
     2.1521   2.1521   2.1521   2.1521   2.1521   2.1521   2.1521   2.1521
     2.1539   2.1539   2.1539   2.1539   2.1540   2.1540   2.1540   2.1540
     9.9055   9.9056   9.9056   9.9056   9.9056   9.9056   9.9056   9.9056
    10.1505  10.1505  10.1505  10.1505  10.1505

     occupation numbers 
     1.0000   1.0000   1.0000   1.0000   1.0000   1.0000   1.0000   1.0000
     1.0000   1.0000   1.0000   1.0000   1.0000   1.0000   1.0000   1.0000
     1.0000   1.0000   1.0000   1.0000   1.0000   1.0000   1.0000   1.0000
     1.0000   1.0000   1.0000   1.0000   1.0000   1.0000   1.0000   1.0000
     1.0000   1.0000   1.0000   1.0000   1.0000   1.0000   1.0000   1.0000
     1.0000   1.0000   1.0000   1.0000   1.0000   1.0000   1.0000   1.0000
     1.0000   1.0000   1.0000   1.0000   1.0000   1.0000   1.0000   1.0000
     1.0000   1.0000   1.0000   1.0000   1.0000   1.0000   1.0000   1.0000
     0.0000   0.0000   0.0000   0.0000   0.0000   0.0000   0.0000   0.0000
     0.0000   0.0000   0.0000   0.0000   0.0000

     the Fermi energy is     3.8899 ev

!    total energy              =    -638.68184290 Ry
     estimated scf accuracy    <          4.3E-11 Ry
     smearing contrib. (-TS)   =       0.00000000 Ry
     internal energy E=F+TS    =    -638.68184290 Ry

     The total energy is F=E-TS. E is the sum of the following terms:
     one-electron contribution =     -67.72509937 Ry
     hartree contribution      =      84.94141034 Ry
     xc contribution           =    -182.65850991 Ry
     ewald contribution        =    -473.23964396 Ry

     convergence has been achieved in  10 iterations

     Forces acting on atoms (cartesian axes, Ry/au):

     atom    1 type  1   force =     0.00000000    0.00000000    0.00000000
     atom    2 type  2   force =     0.00000000    0.00000000    0.00000000
     atom    3 type  1   force =     0.00000000    0.00000000    0.00000000
     atom    4 type  2   force =     0.00000000    0.00000000   -0.00000000
     atom    5 type  1   force =     0.00000000    0.00000000    0.00000000
     atom    6 type  2   force =     0.00000000   -0.00000000    0.00000000
     atom    7 type  1   force =     0.00000000    0.00000000    0.00000000
     atom    8 type  2   force =     0.00000000   -0.00000000   -0.00000000
     atom    9 type  1   force =     0.00000000    0.00000000    0.00000000
     atom   10 type  2   force =    -0.00000000    0.00000000    0.00000000
     atom   11 type  1   force =     0.00000000    0.00000000    0.00000000
     atom   12 type  2   force =    -0.00000000    0.00000000   -0.00000000
     atom   13 type  1   force =     0.00000000    0.00000000    0.00000000
     atom   14 type  2   force =    -0.00000000   -0.00000000    0.00000000
     atom   15 type  1   force =     0.00000000   -0.00000000    0.00000000
     atom   16 type  2   force =    -0.00000000   -0.00000000   -0.00000000
     The non-local contrib.  to forces
     atom    1 type  1   force =     0.00000000    0.00000000    0.00000000
     atom    2 type  2   force =     0.00000035    0.00000035    0.00000035
     atom    3 type  1   force =     0.00000000    0.00000000    0.00000000
     atom    4 type  2   force =     0.00000035    0.00000035   -0.00000035
     atom    5 type  1   force =     0.00000000    0.00000000    0.00000000
     atom    6 type  2   force =     0.00000035   -0.00000035    0.00000035
     atom    7 type  1   force =     0.00000000    0.00000000   -0.00000000
     atom    8 type  2   force =     0.00000035   -0.00000035   -0.00000035
     atom    9 type  1   force =     0.00000000    0.00000000    0.00000000
     atom   10 type  2   force =    -0.00000035    0.00000035    0.00000035
     atom   11 type  1   force =     0.00000000    0.00000000    0.00000000
     atom   12 type  2   force =    -0.00000035    0.00000035   -0.00000035
     atom   13 type  1   force =     0.00000000    0.00000000    0.00000000
     atom   14 type  2   force =    -0.00000035   -0.00000035    0.00000035
     atom   15 type  1   force =     0.00000000    0.00000000   -0.00000000
     atom   16 type  2   force =    -0.00000035   -0.00000035   -0.00000035
     The ionic contribution  to forces
     atom    1 type  1   force =    -0.00001163   -0.00001163   -0.00001163
     atom    2 type  2   force =     0.00000170    0.00000170    0.00000170
     atom    3 type  1   force =    -0.00001163   -0.00001163    0.00000961
     atom    4 type  2   force =     0.00000170    0.00000170    0.00000031
     atom    5 type  1   force =    -0.00001163    0.00000961   -0.00001163
     atom    6 type  2   force =     0.00000170    0.00000031    0.00000170
     atom    7 type  1   force =    -0.00001163    0.00000961    0.00000961
     atom    8 type  2   force =     0.00000170    0.00000031    0.00000031
     atom    9 type  1   force =     0.00000961   -0.00001163   -0.00001163
     atom   10 type  2   force =     0.00000031    0.00000170    0.00000170
     atom   11 type  1   force =     0.00000961   -0.00001163    0.00000961
     atom   12 type  2   force =     0.00000031    0.00000170    0.00000031
     atom   13 type  1   force =     0.00000961    0.00000961   -0.00001163
     atom   14 type  2   force =     0.00000031    0.00000031    0.00000170
     atom   15 type  1   force =     0.00000961    0.00000961    0.00000961
     atom   16 type  2   force =     0.00000031    0.00000031    0.00000031
     The local contribution  to forces
     atom    1 type  1   force =     0.00000000    0.00000000    0.00000000
     atom    2 type  2   force =     0.00002700    0.00002700    0.00002700
     atom    3 type  1   force =     0.00000000    0.00000000    0.00002397
     atom    4 type  2   force =     0.00002700    0.00002700    0.00003017
     atom    5 type  1   force =     0.00000000    0.00002397    0.00000000
     atom    6 type  2   force =     0.00002700    0.00003017    0.00002700
     atom    7 type  1   force =     0.00000000    0.00002397    0.00002397
     atom    8 type  2   force =     0.00002700    0.00003017    0.00003017
     atom    9 type  1   force =     0.00002397    0.00000000    0.00000000
     atom   10 type  2   force =     0.00003017    0.00002700    0.00002700
     atom   11 type  1   force =     0.00002397    0.00000000    0.00002397
     atom   12 type  2   force =     0.00003017    0.00002700    0.00003017
     atom   13 type  1   force =     0.00002397    0.00002397    0.00000000
     atom   14 type  2   force =     0.00003017    0.00003017    0.00002700
     atom   15 type  1   force =     0.00002397    0.00002397    0.00002397
     atom   16 type  2   force =     0.00003017    0.00003017    0.00003017
     The core correction contribution to forces
     atom    1 type  1   force =    -0.00000000   -0.00000000   -0.00000000
     atom    2 type  2   force =    -0.00000234   -0.00000234   -0.00000234
     atom    3 type  1   force =    -0.00000000   -0.00000000    0.00000004
     atom    4 type  2   force =    -0.00000234   -0.00000234   -0.00000230
     atom    5 type  1   force =    -0.00000000    0.00000004   -0.00000000
     atom    6 type  2   force =    -0.00000234   -0.00000230   -0.00000234
     atom    7 type  1   force =    -0.00000000    0.00000004    0.00000004
     atom    8 type  2   force =    -0.00000234   -0.00000230   -0.00000230
     atom    9 type  1   force =     0.00000004   -0.00000000   -0.00000000
     atom   10 type  2   force =    -0.00000230   -0.00000234   -0.00000234
     atom   11 type  1   force =     0.00000004   -0.00000000    0.00000004
     atom   12 type  2   force =    -0.00000230   -0.00000234   -0.00000230
     atom   13 type  1   force =     0.00000004    0.00000004   -0.00000000
     atom   14 type  2   force =    -0.00000230   -0.00000230   -0.00000234
     atom   15 type  1   force =     0.00000004    0.00000004    0.00000004
     atom   16 type  2   force =    -0.00000230   -0.00000230   -0.00000230
     The Hubbard contrib.    to forces
     atom    1 type  1   force =     0.00000000    0.00000000    0.00000000
     atom    2 type  2   force =     0.00000000    0.00000000    0.00000000
     atom    3 type  1   force =     0.00000000    0.00000000    0.00000000
     atom    4 type  2   force =     0.00000000    0.00000000    0.00000000
     atom    5 type  1   force =     0.00000000    0.00000000    0.00000000
     atom    6 type  2   force =     0.00000000    0.00000000    0.00000000
     atom    7 type  1   force =     0.00000000    0.00000000    0.00000000
     atom    8 type  2   force =     0.00000000    0.00000000    0.00000000
     atom    9 type  1   force =     0.00000000    0.00000000    0.00000000
     atom   10 type  2   force =     0.00000000    0.00000000    0.00000000
     atom   11 type  1   force =     0.00000000    0.00000000    0.00000000
     atom   12 type  2   force =     0.00000000    0.00000000    0.00000000
     atom   13 type  1   force =     0.00000000    0.00000000    0.00000000
     atom   14 type  2   force =     0.00000000    0.00000000    0.00000000
     atom   15 type  1   force =     0.00000000    0.00000000    0.00000000
     atom   16 type  2   force =     0.00000000    0.00000000    0.00000000
     The SCF correction term to forces
     atom    1 type  1   force =     0.00000000    0.00000000    0.00000000
     atom    2 type  2   force =     0.00000057    0.00000057    0.00000057
     atom    3 type  1   force =     0.00000000    0.00000000   -0.00000000
     atom    4 type  2   force =     0.00000057    0.00000057   -0.00000057
     atom    5 type  1   force =     0.00000000   -0.00000000    0.00000000
     atom    6 type  2   force =     0.00000057   -0.00000057    0.00000057
     atom    7 type  1   force =     0.00000000   -0.00000000   -0.00000000
     atom    8 type  2   force =     0.00000057   -0.00000057   -0.00000057
     atom    9 type  1   force =    -0.00000000    0.00000000    0.00000000
     atom   10 type  2   force =    -0.00000057    0.00000057    0.00000057
     atom   11 type  1   force =    -0.00000000    0.00000000   -0.00000000
     atom   12 type  2   force =    -0.00000057    0.00000057   -0.00000057
     atom   13 type  1   force =    -0.00000000   -0.00000000    0.00000000
     atom   14 type  2   force =    -0.00000057   -0.00000057    0.00000057
     atom   15 type  1   force =    -0.00000000   -0.00000000   -0.00000000
     atom   16 type  2   force =    -0.00000057   -0.00000057   -0.00000057

     Total force =     0.000000     Total SCF correction =     0.000003
     SCF correction compared to forces is large: reduce conv_thr to get better values


     Computing stress (Cartesian axis) and pressure

          total   stress  (Ry/bohr**3)                   (kbar)     P=        0.00
   0.00000001   0.00000000   0.00000000            0.00        0.00        0.00
   0.00000000   0.00000001   0.00000000            0.00        0.00        0.00
   0.00000000   0.00000000   0.00000001            0.00        0.00        0.00

     kinetic stress (kbar)   4212.41      0.00      0.00
                                0.00   4212.41      0.00
                                0.00      0.00   4212.41

     local   stress (kbar)  -2472.14     -0.00     -0.00
                               -0.00  -2472.14     -0.00
                               -0.00     -0.00  -2472.14

     nonloc. stress (kbar)   4626.05      0.00      0.00
                                0.00   4626.05      0.00
                                0.00      0.00   4626.05

     hartree stress (kbar)   1038.76      0.00      0.00
                                0.00   1038.76      0.00
                                0.00      0.00   1038.76

     exc-cor stress (kbar)   1546.47     -0.00     -0.00
                               -0.00   1546.47     -0.00
                               -0.00     -0.00   1546.47

     corecor stress (kbar)  -3164.25      0.00      0.00
                                0.00  -3164.25      0.00
                                0.00      0.00  -3164.25

     ewald   stress (kbar)  -5787.29      0.00      0.00
                                0.00  -5787.29      0.00
                                0.00      0.00  -5787.29

     hubbard stress (kbar)      0.00      0.00      0.00
                                0.00      0.00      0.00
                                0.00      0.00      0.00

     DFT-D   stress (kbar)      0.00      0.00      0.00
                                0.00      0.00      0.00
                                0.00      0.00      0.00

     XDM     stress (kbar)      0.00      0.00      0.00
                                0.00      0.00      0.00
                                0.00      0.00      0.00

     dft-nl  stress (kbar)      0.00      0.00      0.00
                                0.00      0.00      0.00
                                0.00      0.00      0.00

     TS-vdW  stress (kbar)      0.00      0.00      0.00
                                0.00      0.00      0.00
                                0.00      0.00      0.00


                                0.00      0.00      0.00
                                0.00      0.00      0.00


                                0.00      0.00      0.00


     Writing output data file ./out/pwscf.save/
 
     init_run     :      8.08s CPU      9.29s WALL (       2 calls)
     electrons    :    524.74s CPU    532.78s WALL (       9 calls)
     update_pot   :     17.01s CPU     17.05s WALL (       7 calls)
     forces       :     23.52s CPU     23.74s WALL (       9 calls)
     stress       :    104.57s CPU    105.12s WALL (       9 calls)

     Called by init_run:
     wfcinit      :      2.37s CPU      3.20s WALL (       2 calls)
     wfcinit:atom :      0.04s CPU      0.04s WALL (      20 calls)
     wfcinit:wfcr :      2.17s CPU      2.93s WALL (      20 calls)
     potinit      :      1.45s CPU      1.51s WALL (       2 calls)
     hinit0       :      2.58s CPU      2.82s WALL (       2 calls)

     Called by electrons:
     c_bands      :    471.91s CPU    477.65s WALL (     103 calls)
     sum_band     :     42.21s CPU     42.83s WALL (     103 calls)
     v_of_rho     :      8.44s CPU      8.51s WALL (     110 calls)
     v_h          :      0.63s CPU      0.63s WALL (     110 calls)
     v_xc         :      9.06s CPU      9.13s WALL (     128 calls)
     mix_rho      :      1.52s CPU      1.62s WALL (     103 calls)

     Called by c_bands:
     init_us_2    :     14.35s CPU     14.46s WALL (    2260 calls)
     cegterg      :    393.67s CPU    397.34s WALL (    1036 calls)

     Called by sum_band:
     sum_band:wei :      0.02s CPU      0.02s WALL (     103 calls)
     sum_band:loo :     40.67s CPU     41.27s WALL (     103 calls)
     sum_band:buf :      1.56s CPU      1.58s WALL (    1030 calls)
     sum_band:ini :      6.65s CPU      6.68s WALL (    1030 calls)

     Called by *egterg:
     cdiaghg      :     33.22s CPU     34.04s WALL (    4395 calls)
     cegterg:over :     32.82s CPU     32.96s WALL (    3455 calls)
     cegterg:upda :     25.06s CPU     25.24s WALL (    3455 calls)
     cegterg:last :     46.37s CPU     46.57s WALL (    2422 calls)
     cdiaghg:chol :      1.54s CPU      1.92s WALL (    4395 calls)
     cdiaghg:inve :      0.17s CPU      0.23s WALL (    4395 calls)
     cdiaghg:para :      2.71s CPU      2.74s WALL (    8790 calls)
     h_psi        :    243.99s CPU    246.95s WALL (    4511 calls)
     g_psi        :      1.68s CPU      1.71s WALL (    3455 calls)

     Called by h_psi:
     h_psi:calbec :     37.96s CPU     38.23s WALL (    4511 calls)
     vloc_psi     :    166.19s CPU    168.70s WALL (    4511 calls)
     add_vuspsi   :     36.41s CPU     36.54s WALL (    4511 calls)

     General routines
     calbec       :     46.08s CPU     46.37s WALL (    4961 calls)
     fft          :      6.39s CPU      6.67s WALL (    1527 calls)
     ffts         :      0.21s CPU      0.24s WALL (     213 calls)
     fftw         :    172.04s CPU    174.59s WALL (  526444 calls)
     interpolate  :      0.59s CPU      0.62s WALL (     110 calls)
 
     Parallel routines
 
     PWSCF        :  11m19.15s CPU  11m31.28s WALL

 
   This run was terminated on:   0:49:24  27Mar2024            

=------------------------------------------------------------------------------=
   JOB DONE.
=------------------------------------------------------------------------------=
